TITLE = "  4.00000E+00 [d]"
VARIABLES="X [m]","Y [m]","Z [m]","Liquid Pressure [Pa]","Gas Pressure [Pa]","Liquid Saturation","Gas Saturation","Liquid Density [kg/m^3]","Gas Density [kg/m^3]","X_g^l","X_l^l","X_g^g","X_l^g","Temperature [C]","Liquid Energy [MJ/kmol]","Gas Energy [MJ/kmol]","Thermodynamic State","pH","Total DOM1 [M]","Total O2(aq) [M]","Total HCO3- [M]","Total Fe+++ [M]","Total Fe++ [M]","Total Tracer2 [M]","Total Tracer3 [M]","Total CH4(aq) [M]","Total Acetate- [M]","Total CH3OH [M]","Total SO4-- [M]","Total HS- [M]","Free DOM1 [M]","Free O2(aq) [M]","Free HCO3- [M]","Free Fe+++ [M]","Free Fe++ [M]","Free Tracer2 [M]","Free Tracer3 [M]","Free CH4(aq) [M]","Free Acetate- [M]","Free CH3OH [M]","Free SO4-- [M]","Free HS- [M]","Gamma H2O","CO2(aq) [M]","Fe(OH)3 VF [m^3 mnrl/m^3 bulk]","Fe(OH)2 VF [m^3 mnrl/m^3 bulk]","Rock(s) VF [m^3 mnrl/m^3 bulk]","Fe(OH)3 Rate [mol/m^3/sec]","Fe(OH)2 Rate [mol/m^3/sec]","Rock(s) Rate [mol/m^3/sec]","Material ID"
ZONE T="4.00000E+00", STRANDID=1, SOLUTIONTIME=4.00000E+00, I=4, J=4, K=4, DATAPACKING=POINT
 1.250000E-01  1.250000E-01  1.250000E-01  1.937179E+05  2.001669E+05  8.403988E-01  1.596012E-01  9.999772E+02  2.474831E+00  3.096918E-05  9.999690E-01  9.946581E-01  5.341927E-03  8.000000E+00  6.037993E-01  6.059757E+00    3  4.699814E+00  1.000298E-15  9.999772E-26  3.131767E-02  4.921708E-09  8.003255E+03  1.000000E-15  8.776668E-04  9.999997E-16  1.000037E-15  1.000000E-15  1.000000E-15  1.000000E-15  1.000298E-15  9.999772E-26  2.968303E-05  3.598726E-09  8.003225E+03  1.000000E-15  8.776668E-04  9.999997E-16  1.000037E-15  1.000000E-15  1.000000E-15  1.000000E-15  1.000000E+00  1.310372E-03  2.960814E-05  7.199314E-01  5.000000E-01  4.333597E-11 -7.497336E-06  0.000000E+00    1 
 3.750000E-01  1.250000E-01  1.250000E-01  1.937179E+05  2.001669E+05  8.403988E-01  1.596012E-01  9.999772E+02  2.474831E+00  3.096918E-05  9.999690E-01  9.946581E-01  5.341927E-03  8.000000E+00  6.037993E-01  6.059757E+00    3  4.699814E+00  1.000298E-15  9.999772E-26  3.131767E-02  4.921708E-09  8.003255E+03  1.000000E-15  8.776668E-04  9.999997E-16  1.000037E-15  1.000000E-15  1.000000E-15  1.000000E-15  1.000298E-15  9.999772E-26  2.968303E-05  3.598726E-09  8.003225E+03  1.000000E-15  8.776668E-04  9.999997E-16  1.000037E-15  1.000000E-15  1.000000E-15  1.000000E-15  1.000000E+00  1.310372E-03  2.960814E-05  7.199314E-01  5.000000E-01  4.333597E-11 -7.497336E-06  0.000000E+00    1 
 6.250000E-01  1.250000E-01  1.250000E-01  1.937179E+05  2.001669E+05  8.403988E-01  1.596012E-01  9.999772E+02  2.474831E+00  3.096918E-05  9.999690E-01  9.946581E-01  5.341927E-03  8.000000E+00  6.037993E-01  6.059757E+00    3  4.699814E+00  1.000298E-15  9.999772E-26  3.131767E-02  4.921708E-09  8.003255E+03  1.000000E-15  8.776668E-04  9.999997E-16  1.000037E-15  1.000000E-15  1.000000E-15  1.000000E-15  1.000298E-15  9.999772E-26  2.968303E-05  3.598726E-09  8.003225E+03  1.000000E-15  8.776668E-04  9.999997E-16  1.000037E-15  1.000000E-15  1.000000E-15  1.000000E-15  1.000000E+00  1.310372E-03  2.960814E-05  7.199314E-01  5.000000E-01  4.333597E-11 -7.497336E-06  0.000000E+00    1 
 8.750000E-01  1.250000E-01  1.250000E-01  1.937179E+05  2.001669E+05  8.403988E-01  1.596012E-01  9.999772E+02  2.474831E+00  3.096918E-05  9.999690E-01  9.946581E-01  5.341927E-03  8.000000E+00  6.037993E-01  6.059757E+00    3  4.699814E+00  1.000298E-15  9.999772E-26  3.131767E-02  4.921708E-09  8.003255E+03  1.000000E-15  8.776668E-04  9.999997E-16  1.000037E-15  1.000000E-15  1.000000E-15  1.000000E-15  1.000298E-15  9.999772E-26  2.968303E-05  3.598726E-09  8.003225E+03  1.000000E-15  8.776668E-04  9.999997E-16  1.000037E-15  1.000000E-15  1.000000E-15  1.000000E-15  1.000000E+00  1.310372E-03  2.960814E-05  7.199314E-01  5.000000E-01  4.333597E-11 -7.497336E-06  0.000000E+00    1 
 1.250000E-01  3.750000E-01  1.250000E-01  1.937179E+05  2.001669E+05  8.403988E-01  1.596012E-01  9.999772E+02  2.474831E+00  3.096918E-05  9.999690E-01  9.946581E-01  5.341927E-03  8.000000E+00  6.037993E-01  6.059757E+00    3  4.699814E+00  1.000298E-15  9.999772E-26  3.131767E-02  4.921708E-09  8.003255E+03  1.000000E-15  8.776668E-04  9.999997E-16  1.000037E-15  1.000000E-15  1.000000E-15  1.000000E-15  1.000298E-15  9.999772E-26  2.968303E-05  3.598726E-09  8.003225E+03  1.000000E-15  8.776668E-04  9.999997E-16  1.000037E-15  1.000000E-15  1.000000E-15  1.000000E-15  1.000000E+00  1.310372E-03  2.960814E-05  7.199314E-01  5.000000E-01  4.333597E-11 -7.497336E-06  0.000000E+00    1 
 3.750000E-01  3.750000E-01  1.250000E-01  1.937179E+05  2.001669E+05  8.403988E-01  1.596012E-01  9.999772E+02  2.474831E+00  3.096918E-05  9.999690E-01  9.946581E-01  5.341927E-03  8.000000E+00  6.037993E-01  6.059757E+00    3  4.699814E+00  1.000298E-15  9.999772E-26  3.131767E-02  4.921708E-09  8.003255E+03  1.000000E-15  8.776668E-04  9.999997E-16  1.000037E-15  1.000000E-15  1.000000E-15  1.000000E-15  1.000298E-15  9.999772E-26  2.968303E-05  3.598726E-09  8.003225E+03  1.000000E-15  8.776668E-04  9.999997E-16  1.000037E-15  1.000000E-15  1.000000E-15  1.000000E-15  1.000000E+00  1.310372E-03  2.960814E-05  7.199314E-01  5.000000E-01  4.333597E-11 -7.497336E-06  0.000000E+00    1 
 6.250000E-01  3.750000E-01  1.250000E-01  1.937179E+05  2.001669E+05  8.403988E-01  1.596012E-01  9.999772E+02  2.474831E+00  3.096918E-05  9.999690E-01  9.946581E-01  5.341927E-03  8.000000E+00  6.037993E-01  6.059757E+00    3  4.699814E+00  1.000298E-15  9.999772E-26  3.131767E-02  4.921708E-09  8.003255E+03  1.000000E-15  8.776668E-04  9.999997E-16  1.000037E-15  1.000000E-15  1.000000E-15  1.000000E-15  1.000298E-15  9.999772E-26  2.968303E-05  3.598726E-09  8.003225E+03  1.000000E-15  8.776668E-04  9.999997E-16  1.000037E-15  1.000000E-15  1.000000E-15  1.000000E-15  1.000000E+00  1.310372E-03  2.960814E-05  7.199314E-01  5.000000E-01  4.333597E-11 -7.497336E-06  0.000000E+00    1 
 8.750000E-01  3.750000E-01  1.250000E-01  1.937179E+05  2.001669E+05  8.403988E-01  1.596012E-01  9.999772E+02  2.474831E+00  3.096918E-05  9.999690E-01  9.946581E-01  5.341927E-03  8.000000E+00  6.037993E-01  6.059757E+00    3  4.699814E+00  1.000298E-15  9.999772E-26  3.131767E-02  4.921708E-09  8.003255E+03  1.000000E-15  8.776668E-04  9.999997E-16  1.000037E-15  1.000000E-15  1.000000E-15  1.000000E-15  1.000298E-15  9.999772E-26  2.968303E-05  3.598726E-09  8.003225E+03  1.000000E-15  8.776668E-04  9.999997E-16  1.000037E-15  1.000000E-15  1.000000E-15  1.000000E-15  1.000000E+00  1.310372E-03  2.960814E-05  7.199314E-01  5.000000E-01  4.333597E-11 -7.497336E-06  0.000000E+00    1 
 1.250000E-01  6.250000E-01  1.250000E-01  1.937179E+05  2.001669E+05  8.403988E-01  1.596012E-01  9.999772E+02  2.474831E+00  3.096918E-05  9.999690E-01  9.946581E-01  5.341927E-03  8.000000E+00  6.037993E-01  6.059757E+00    3  4.699814E+00  1.000298E-15  9.999772E-26  3.131767E-02  4.921708E-09  8.003255E+03  1.000000E-15  8.776668E-04  9.999997E-16  1.000037E-15  1.000000E-15  1.000000E-15  1.000000E-15  1.000298E-15  9.999772E-26  2.968303E-05  3.598726E-09  8.003225E+03  1.000000E-15  8.776668E-04  9.999997E-16  1.000037E-15  1.000000E-15  1.000000E-15  1.000000E-15  1.000000E+00  1.310372E-03  2.960814E-05  7.199314E-01  5.000000E-01  4.333597E-11 -7.497336E-06  0.000000E+00    1 
 3.750000E-01  6.250000E-01  1.250000E-01  1.937179E+05  2.001669E+05  8.403988E-01  1.596012E-01  9.999772E+02  2.474831E+00  3.096918E-05  9.999690E-01  9.946581E-01  5.341927E-03  8.000000E+00  6.037993E-01  6.059757E+00    3  4.699814E+00  1.000298E-15  9.999772E-26  3.131767E-02  4.921708E-09  8.003255E+03  1.000000E-15  8.776668E-04  9.999997E-16  1.000037E-15  1.000000E-15  1.000000E-15  1.000000E-15  1.000298E-15  9.999772E-26  2.968303E-05  3.598726E-09  8.003225E+03  1.000000E-15  8.776668E-04  9.999997E-16  1.000037E-15  1.000000E-15  1.000000E-15  1.000000E-15  1.000000E+00  1.310372E-03  2.960814E-05  7.199314E-01  5.000000E-01  4.333597E-11 -7.497336E-06  0.000000E+00    1 
 6.250000E-01  6.250000E-01  1.250000E-01  1.937179E+05  2.001669E+05  8.403988E-01  1.596012E-01  9.999772E+02  2.474831E+00  3.096918E-05  9.999690E-01  9.946581E-01  5.341927E-03  8.000000E+00  6.037993E-01  6.059757E+00    3  4.699814E+00  1.000298E-15  9.999772E-26  3.131767E-02  4.921708E-09  8.003255E+03  1.000000E-15  8.776668E-04  9.999997E-16  1.000037E-15  1.000000E-15  1.000000E-15  1.000000E-15  1.000298E-15  9.999772E-26  2.968303E-05  3.598726E-09  8.003225E+03  1.000000E-15  8.776668E-04  9.999997E-16  1.000037E-15  1.000000E-15  1.000000E-15  1.000000E-15  1.000000E+00  1.310372E-03  2.960814E-05  7.199314E-01  5.000000E-01  4.333597E-11 -7.497336E-06  0.000000E+00    1 
 8.750000E-01  6.250000E-01  1.250000E-01  1.937179E+05  2.001669E+05  8.403988E-01  1.596012E-01  9.999772E+02  2.474831E+00  3.096918E-05  9.999690E-01  9.946581E-01  5.341927E-03  8.000000E+00  6.037993E-01  6.059757E+00    3  4.699814E+00  1.000298E-15  9.999772E-26  3.131767E-02  4.921708E-09  8.003255E+03  1.000000E-15  8.776668E-04  9.999997E-16  1.000037E-15  1.000000E-15  1.000000E-15  1.000000E-15  1.000298E-15  9.999772E-26  2.968303E-05  3.598726E-09  8.003225E+03  1.000000E-15  8.776668E-04  9.999997E-16  1.000037E-15  1.000000E-15  1.000000E-15  1.000000E-15  1.000000E+00  1.310372E-03  2.960814E-05  7.199314E-01  5.000000E-01  4.333597E-11 -7.497336E-06  0.000000E+00    1 
 1.250000E-01  8.750000E-01  1.250000E-01  1.937179E+05  2.001669E+05  8.403988E-01  1.596012E-01  9.999772E+02  2.474831E+00  3.096918E-05  9.999690E-01  9.946581E-01  5.341927E-03  8.000000E+00  6.037993E-01  6.059757E+00    3  4.699814E+00  1.000298E-15  9.999772E-26  3.131767E-02  4.921708E-09  8.003255E+03  1.000000E-15  8.776668E-04  9.999997E-16  1.000037E-15  1.000000E-15  1.000000E-15  1.000000E-15  1.000298E-15  9.999772E-26  2.968303E-05  3.598726E-09  8.003225E+03  1.000000E-15  8.776668E-04  9.999997E-16  1.000037E-15  1.000000E-15  1.000000E-15  1.000000E-15  1.000000E+00  1.310372E-03  2.960814E-05  7.199314E-01  5.000000E-01  4.333597E-11 -7.497336E-06  0.000000E+00    1 
 3.750000E-01  8.750000E-01  1.250000E-01  1.937179E+05  2.001669E+05  8.403988E-01  1.596012E-01  9.999772E+02  2.474831E+00  3.096918E-05  9.999690E-01  9.946581E-01  5.341927E-03  8.000000E+00  6.037993E-01  6.059757E+00    3  4.699814E+00  1.000298E-15  9.999772E-26  3.131767E-02  4.921708E-09  8.003255E+03  1.000000E-15  8.776668E-04  9.999997E-16  1.000037E-15  1.000000E-15  1.000000E-15  1.000000E-15  1.000298E-15  9.999772E-26  2.968303E-05  3.598726E-09  8.003225E+03  1.000000E-15  8.776668E-04  9.999997E-16  1.000037E-15  1.000000E-15  1.000000E-15  1.000000E-15  1.000000E+00  1.310372E-03  2.960814E-05  7.199314E-01  5.000000E-01  4.333597E-11 -7.497336E-06  0.000000E+00    1 
 6.250000E-01  8.750000E-01  1.250000E-01  1.937179E+05  2.001669E+05  8.403988E-01  1.596012E-01  9.999772E+02  2.474831E+00  3.096918E-05  9.999690E-01  9.946581E-01  5.341927E-03  8.000000E+00  6.037993E-01  6.059757E+00    3  4.699814E+00  1.000298E-15  9.999772E-26  3.131767E-02  4.921708E-09  8.003255E+03  1.000000E-15  8.776668E-04  9.999997E-16  1.000037E-15  1.000000E-15  1.000000E-15  1.000000E-15  1.000298E-15  9.999772E-26  2.968303E-05  3.598726E-09  8.003225E+03  1.000000E-15  8.776668E-04  9.999997E-16  1.000037E-15  1.000000E-15  1.000000E-15  1.000000E-15  1.000000E+00  1.310372E-03  2.960814E-05  7.199314E-01  5.000000E-01  4.333597E-11 -7.497336E-06  0.000000E+00    1 
 8.750000E-01  8.750000E-01  1.250000E-01  1.937179E+05  2.001669E+05  8.403988E-01  1.596012E-01  9.999772E+02  2.474831E+00  3.096918E-05  9.999690E-01  9.946581E-01  5.341927E-03  8.000000E+00  6.037993E-01  6.059757E+00    3  4.699814E+00  1.000298E-15  9.999772E-26  3.131767E-02  4.921708E-09  8.003255E+03  1.000000E-15  8.776668E-04  9.999997E-16  1.000037E-15  1.000000E-15  1.000000E-15  1.000000E-15  1.000298E-15  9.999772E-26  2.968303E-05  3.598726E-09  8.003225E+03  1.000000E-15  8.776668E-04  9.999997E-16  1.000037E-15  1.000000E-15  1.000000E-15  1.000000E-15  1.000000E+00  1.310372E-03  2.960814E-05  7.199314E-01  5.000000E-01  4.333597E-11 -7.497336E-06  0.000000E+00    1 
 1.250000E-01  1.250000E-01  3.750000E-01  1.928853E+05  2.001344E+05  8.096445E-01  1.903555E-01  9.999772E+02  2.474429E+00  3.096413E-05  9.999690E-01  9.946572E-01  5.342794E-03  8.000000E+00  6.037993E-01  6.059789E+00    3  4.699312E+00  1.000260E-15  9.999772E-26  3.131767E-02  4.938640E-09  8.003255E+03  1.000000E-15  8.776710E-04  9.999998E-16  1.000033E-15  1.000000E-15  1.000000E-15  1.000000E-15  1.000260E-15  9.999772E-26  2.971443E-05  3.611221E-09  8.003225E+03  1.000000E-15  8.776710E-04  9.999998E-16  1.000033E-15  1.000000E-15  1.000000E-15  1.000000E-15  1.000000E+00  1.313274E-03  2.961050E-05  7.199314E-01  5.000000E-01  1.302072E-10 -7.503110E-06  0.000000E+00    1 
 3.750000E-01  1.250000E-01  3.750000E-01  1.928853E+05  2.001344E+05  8.096445E-01  1.903555E-01  9.999772E+02  2.474429E+00  3.096413E-05  9.999690E-01  9.946572E-01  5.342794E-03  8.000000E+00  6.037993E-01  6.059789E+00    3  4.699312E+00  1.000260E-15  9.999772E-26  3.131767E-02  4.938640E-09  8.003255E+03  1.000000E-15  8.776710E-04  9.999998E-16  1.000033E-15  1.000000E-15  1.000000E-15  1.000000E-15  1.000260E-15  9.999772E-26  2.971443E-05  3.611221E-09  8.003225E+03  1.000000E-15  8.776710E-04  9.999998E-16  1.000033E-15  1.000000E-15  1.000000E-15  1.000000E-15  1.000000E+00  1.313274E-03  2.961050E-05  7.199314E-01  5.000000E-01  1.302072E-10 -7.503110E-06  0.000000E+00    1 
 6.250000E-01  1.250000E-01  3.750000E-01  1.928853E+05  2.001344E+05  8.096445E-01  1.903555E-01  9.999772E+02  2.474429E+00  3.096413E-05  9.999690E-01  9.946572E-01  5.342794E-03  8.000000E+00  6.037993E-01  6.059789E+00    3  4.699312E+00  1.000260E-15  9.999772E-26  3.131767E-02  4.938640E-09  8.003255E+03  1.000000E-15  8.776710E-04  9.999998E-16  1.000033E-15  1.000000E-15  1.000000E-15  1.000000E-15  1.000260E-15  9.999772E-26  2.971443E-05  3.611221E-09  8.003225E+03  1.000000E-15  8.776710E-04  9.999998E-16  1.000033E-15  1.000000E-15  1.000000E-15  1.000000E-15  1.000000E+00  1.313274E-03  2.961050E-05  7.199314E-01  5.000000E-01  1.302072E-10 -7.503110E-06  0.000000E+00    1 
 8.750000E-01  1.250000E-01  3.750000E-01  1.928853E+05  2.001344E+05  8.096445E-01  1.903555E-01  9.999772E+02  2.474429E+00  3.096413E-05  9.999690E-01  9.946572E-01  5.342794E-03  8.000000E+00  6.037993E-01  6.059789E+00    3  4.699312E+00  1.000260E-15  9.999772E-26  3.131767E-02  4.938640E-09  8.003255E+03  1.000000E-15  8.776710E-04  9.999998E-16  1.000033E-15  1.000000E-15  1.000000E-15  1.000000E-15  1.000260E-15  9.999772E-26  2.971443E-05  3.611221E-09  8.003225E+03  1.000000E-15  8.776710E-04  9.999998E-16  1.000033E-15  1.000000E-15  1.000000E-15  1.000000E-15  1.000000E+00  1.313274E-03  2.961050E-05  7.199314E-01  5.000000E-01  1.302072E-10 -7.503110E-06  0.000000E+00    1 
 1.250000E-01  3.750000E-01  3.750000E-01  1.928853E+05  2.001344E+05  8.096445E-01  1.903555E-01  9.999772E+02  2.474429E+00  3.096413E-05  9.999690E-01  9.946572E-01  5.342794E-03  8.000000E+00  6.037993E-01  6.059789E+00    3  4.699312E+00  1.000260E-15  9.999772E-26  3.131767E-02  4.938640E-09  8.003255E+03  1.000000E-15  8.776710E-04  9.999998E-16  1.000033E-15  1.000000E-15  1.000000E-15  1.000000E-15  1.000260E-15  9.999772E-26  2.971443E-05  3.611221E-09  8.003225E+03  1.000000E-15  8.776710E-04  9.999998E-16  1.000033E-15  1.000000E-15  1.000000E-15  1.000000E-15  1.000000E+00  1.313274E-03  2.961050E-05  7.199314E-01  5.000000E-01  1.302072E-10 -7.503110E-06  0.000000E+00    1 
 3.750000E-01  3.750000E-01  3.750000E-01  1.928853E+05  2.001344E+05  8.096445E-01  1.903555E-01  9.999772E+02  2.474429E+00  3.096413E-05  9.999690E-01  9.946572E-01  5.342794E-03  8.000000E+00  6.037993E-01  6.059789E+00    3  4.699312E+00  1.000260E-15  9.999772E-26  3.131767E-02  4.938640E-09  8.003255E+03  1.000000E-15  8.776710E-04  9.999998E-16  1.000033E-15  1.000000E-15  1.000000E-15  1.000000E-15  1.000260E-15  9.999772E-26  2.971443E-05  3.611221E-09  8.003225E+03  1.000000E-15  8.776710E-04  9.999998E-16  1.000033E-15  1.000000E-15  1.000000E-15  1.000000E-15  1.000000E+00  1.313274E-03  2.961050E-05  7.199314E-01  5.000000E-01  1.302072E-10 -7.503110E-06  0.000000E+00    1 
 6.250000E-01  3.750000E-01  3.750000E-01  1.928853E+05  2.001344E+05  8.096445E-01  1.903555E-01  9.999772E+02  2.474429E+00  3.096413E-05  9.999690E-01  9.946572E-01  5.342794E-03  8.000000E+00  6.037993E-01  6.059789E+00    3  4.699312E+00  1.000260E-15  9.999772E-26  3.131767E-02  4.938640E-09  8.003255E+03  1.000000E-15  8.776710E-04  9.999998E-16  1.000033E-15  1.000000E-15  1.000000E-15  1.000000E-15  1.000260E-15  9.999772E-26  2.971443E-05  3.611221E-09  8.003225E+03  1.000000E-15  8.776710E-04  9.999998E-16  1.000033E-15  1.000000E-15  1.000000E-15  1.000000E-15  1.000000E+00  1.313274E-03  2.961050E-05  7.199314E-01  5.000000E-01  1.302072E-10 -7.503110E-06  0.000000E+00    1 
 8.750000E-01  3.750000E-01  3.750000E-01  1.928853E+05  2.001344E+05  8.096445E-01  1.903555E-01  9.999772E+02  2.474429E+00  3.096413E-05  9.999690E-01  9.946572E-01  5.342794E-03  8.000000E+00  6.037993E-01  6.059789E+00    3  4.699312E+00  1.000260E-15  9.999772E-26  3.131767E-02  4.938640E-09  8.003255E+03  1.000000E-15  8.776710E-04  9.999998E-16  1.000033E-15  1.000000E-15  1.000000E-15  1.000000E-15  1.000260E-15  9.999772E-26  2.971443E-05  3.611221E-09  8.003225E+03  1.000000E-15  8.776710E-04  9.999998E-16  1.000033E-15  1.000000E-15  1.000000E-15  1.000000E-15  1.000000E+00  1.313274E-03  2.961050E-05  7.199314E-01  5.000000E-01  1.302072E-10 -7.503110E-06  0.000000E+00    1 
 1.250000E-01  6.250000E-01  3.750000E-01  1.928853E+05  2.001344E+05  8.096445E-01  1.903555E-01  9.999772E+02  2.474429E+00  3.096413E-05  9.999690E-01  9.946572E-01  5.342794E-03  8.000000E+00  6.037993E-01  6.059789E+00    3  4.699312E+00  1.000260E-15  9.999772E-26  3.131767E-02  4.938640E-09  8.003255E+03  1.000000E-15  8.776710E-04  9.999998E-16  1.000033E-15  1.000000E-15  1.000000E-15  1.000000E-15  1.000260E-15  9.999772E-26  2.971443E-05  3.611221E-09  8.003225E+03  1.000000E-15  8.776710E-04  9.999998E-16  1.000033E-15  1.000000E-15  1.000000E-15  1.000000E-15  1.000000E+00  1.313274E-03  2.961050E-05  7.199314E-01  5.000000E-01  1.302072E-10 -7.503110E-06  0.000000E+00    1 
 3.750000E-01  6.250000E-01  3.750000E-01  1.928853E+05  2.001344E+05  8.096445E-01  1.903555E-01  9.999772E+02  2.474429E+00  3.096413E-05  9.999690E-01  9.946572E-01  5.342794E-03  8.000000E+00  6.037993E-01  6.059789E+00    3  4.699312E+00  1.000260E-15  9.999772E-26  3.131767E-02  4.938640E-09  8.003255E+03  1.000000E-15  8.776710E-04  9.999998E-16  1.000033E-15  1.000000E-15  1.000000E-15  1.000000E-15  1.000260E-15  9.999772E-26  2.971443E-05  3.611221E-09  8.003225E+03  1.000000E-15  8.776710E-04  9.999998E-16  1.000033E-15  1.000000E-15  1.000000E-15  1.000000E-15  1.000000E+00  1.313274E-03  2.961050E-05  7.199314E-01  5.000000E-01  1.302072E-10 -7.503110E-06  0.000000E+00    1 
 6.250000E-01  6.250000E-01  3.750000E-01  1.928853E+05  2.001344E+05  8.096445E-01  1.903555E-01  9.999772E+02  2.474429E+00  3.096413E-05  9.999690E-01  9.946572E-01  5.342794E-03  8.000000E+00  6.037993E-01  6.059789E+00    3  4.699312E+00  1.000260E-15  9.999772E-26  3.131767E-02  4.938640E-09  8.003255E+03  1.000000E-15  8.776710E-04  9.999998E-16  1.000033E-15  1.000000E-15  1.000000E-15  1.000000E-15  1.000260E-15  9.999772E-26  2.971443E-05  3.611221E-09  8.003225E+03  1.000000E-15  8.776710E-04  9.999998E-16  1.000033E-15  1.000000E-15  1.000000E-15  1.000000E-15  1.000000E+00  1.313274E-03  2.961050E-05  7.199314E-01  5.000000E-01  1.302072E-10 -7.503110E-06  0.000000E+00    1 
 8.750000E-01  6.250000E-01  3.750000E-01  1.928853E+05  2.001344E+05  8.096445E-01  1.903555E-01  9.999772E+02  2.474429E+00  3.096413E-05  9.999690E-01  9.946572E-01  5.342794E-03  8.000000E+00  6.037993E-01  6.059789E+00    3  4.699312E+00  1.000260E-15  9.999772E-26  3.131767E-02  4.938640E-09  8.003255E+03  1.000000E-15  8.776710E-04  9.999998E-16  1.000033E-15  1.000000E-15  1.000000E-15  1.000000E-15  1.000260E-15  9.999772E-26  2.971443E-05  3.611221E-09  8.003225E+03  1.000000E-15  8.776710E-04  9.999998E-16  1.000033E-15  1.000000E-15  1.000000E-15  1.000000E-15  1.000000E+00  1.313274E-03  2.961050E-05  7.199314E-01  5.000000E-01  1.302072E-10 -7.503110E-06  0.000000E+00    1 
 1.250000E-01  8.750000E-01  3.750000E-01  1.928853E+05  2.001344E+05  8.096445E-01  1.903555E-01  9.999772E+02  2.474429E+00  3.096413E-05  9.999690E-01  9.946572E-01  5.342794E-03  8.000000E+00  6.037993E-01  6.059789E+00    3  4.699312E+00  1.000260E-15  9.999772E-26  3.131767E-02  4.938640E-09  8.003255E+03  1.000000E-15  8.776710E-04  9.999998E-16  1.000033E-15  1.000000E-15  1.000000E-15  1.000000E-15  1.000260E-15  9.999772E-26  2.971443E-05  3.611221E-09  8.003225E+03  1.000000E-15  8.776710E-04  9.999998E-16  1.000033E-15  1.000000E-15  1.000000E-15  1.000000E-15  1.000000E+00  1.313274E-03  2.961050E-05  7.199314E-01  5.000000E-01  1.302072E-10 -7.503110E-06  0.000000E+00    1 
 3.750000E-01  8.750000E-01  3.750000E-01  1.928853E+05  2.001344E+05  8.096445E-01  1.903555E-01  9.999772E+02  2.474429E+00  3.096413E-05  9.999690E-01  9.946572E-01  5.342794E-03  8.000000E+00  6.037993E-01  6.059789E+00    3  4.699312E+00  1.000260E-15  9.999772E-26  3.131767E-02  4.938640E-09  8.003255E+03  1.000000E-15  8.776710E-04  9.999998E-16  1.000033E-15  1.000000E-15  1.000000E-15  1.000000E-15  1.000260E-15  9.999772E-26  2.971443E-05  3.611221E-09  8.003225E+03  1.000000E-15  8.776710E-04  9.999998E-16  1.000033E-15  1.000000E-15  1.000000E-15  1.000000E-15  1.000000E+00  1.313274E-03  2.961050E-05  7.199314E-01  5.000000E-01  1.302072E-10 -7.503110E-06  0.000000E+00    1 
 6.250000E-01  8.750000E-01  3.750000E-01  1.928853E+05  2.001344E+05  8.096445E-01  1.903555E-01  9.999772E+02  2.474429E+00  3.096413E-05  9.999690E-01  9.946572E-01  5.342794E-03  8.000000E+00  6.037993E-01  6.059789E+00    3  4.699312E+00  1.000260E-15  9.999772E-26  3.131767E-02  4.938640E-09  8.003255E+03  1.000000E-15  8.776710E-04  9.999998E-16  1.000033E-15  1.000000E-15  1.000000E-15  1.000000E-15  1.000260E-15  9.999772E-26  2.971443E-05  3.611221E-09  8.003225E+03  1.000000E-15  8.776710E-04  9.999998E-16  1.000033E-15  1.000000E-15  1.000000E-15  1.000000E-15  1.000000E+00  1.313274E-03  2.961050E-05  7.199314E-01  5.000000E-01  1.302072E-10 -7.503110E-06  0.000000E+00    1 
 8.750000E-01  8.750000E-01  3.750000E-01  1.928853E+05  2.001344E+05  8.096445E-01  1.903555E-01  9.999772E+02  2.474429E+00  3.096413E-05  9.999690E-01  9.946572E-01  5.342794E-03  8.000000E+00  6.037993E-01  6.059789E+00    3  4.699312E+00  1.000260E-15  9.999772E-26  3.131767E-02  4.938640E-09  8.003255E+03  1.000000E-15  8.776710E-04  9.999998E-16  1.000033E-15  1.000000E-15  1.000000E-15  1.000000E-15  1.000260E-15  9.999772E-26  2.971443E-05  3.611221E-09  8.003225E+03  1.000000E-15  8.776710E-04  9.999998E-16  1.000033E-15  1.000000E-15  1.000000E-15  1.000000E-15  1.000000E+00  1.313274E-03  2.961050E-05  7.199314E-01  5.000000E-01  1.302072E-10 -7.503110E-06  0.000000E+00    1 
 1.250000E-01  1.250000E-01  6.250000E-01  1.931007E+05  2.000915E+05  8.195868E-01  1.804132E-01  9.999772E+02  2.473897E+00  3.095746E-05  9.999690E-01  9.946561E-01  5.343940E-03  8.000000E+00  6.037994E-01  6.059831E+00    3  4.698300E+00  1.000184E-15  9.999772E-26  3.131767E-02  5.007271E-09  8.003255E+03  1.000000E-15  8.776793E-04  9.999998E-16  1.000023E-15  1.000000E-15  1.000000E-15  1.000000E-15  1.000184E-15  9.999772E-26  2.977790E-05  3.661638E-09  8.003225E+03  1.000000E-15  8.776793E-04  9.999998E-16  1.000023E-15  1.000000E-15  1.000000E-15  1.000000E-15  1.000000E+00  1.319151E-03  3.755099E-05  7.199313E-01  5.000000E-01  6.894142E-07 -7.514728E-06  0.000000E+00    1 
 3.750000E-01  1.250000E-01  6.250000E-01  1.931007E+05  2.000915E+05  8.195868E-01  1.804132E-01  9.999772E+02  2.473897E+00  3.095746E-05  9.999690E-01  9.946561E-01  5.343940E-03  8.000000E+00  6.037994E-01  6.059831E+00    3  4.698300E+00  1.000184E-15  9.999772E-26  3.131767E-02  5.007271E-09  8.003255E+03  1.000000E-15  8.776793E-04  9.999998E-16  1.000023E-15  1.000000E-15  1.000000E-15  1.000000E-15  1.000184E-15  9.999772E-26  2.977790E-05  3.661638E-09  8.003225E+03  1.000000E-15  8.776793E-04  9.999998E-16  1.000023E-15  1.000000E-15  1.000000E-15  1.000000E-15  1.000000E+00  1.319151E-03  3.755099E-05  7.199313E-01  5.000000E-01  6.894142E-07 -7.514728E-06  0.000000E+00    1 
 6.250000E-01  1.250000E-01  6.250000E-01  1.931007E+05  2.000915E+05  8.195868E-01  1.804132E-01  9.999772E+02  2.473897E+00  3.095746E-05  9.999690E-01  9.946561E-01  5.343940E-03  8.000000E+00  6.037994E-01  6.059831E+00    3  4.698300E+00  1.000184E-15  9.999772E-26  3.131767E-02  5.007271E-09  8.003255E+03  1.000000E-15  8.776793E-04  9.999998E-16  1.000023E-15  1.000000E-15  1.000000E-15  1.000000E-15  1.000184E-15  9.999772E-26  2.977790E-05  3.661638E-09  8.003225E+03  1.000000E-15  8.776793E-04  9.999998E-16  1.000023E-15  1.000000E-15  1.000000E-15  1.000000E-15  1.000000E+00  1.319151E-03  3.755099E-05  7.199313E-01  5.000000E-01  6.894142E-07 -7.514728E-06  0.000000E+00    1 
 8.750000E-01  1.250000E-01  6.250000E-01  1.931007E+05  2.000915E+05  8.195868E-01  1.804132E-01  9.999772E+02  2.473897E+00  3.095746E-05  9.999690E-01  9.946561E-01  5.343940E-03  8.000000E+00  6.037994E-01  6.059831E+00    3  4.698300E+00  1.000184E-15  9.999772E-26  3.131767E-02  5.007271E-09  8.003255E+03  1.000000E-15  8.776793E-04  9.999998E-16  1.000023E-15  1.000000E-15  1.000000E-15  1.000000E-15  1.000184E-15  9.999772E-26  2.977790E-05  3.661638E-09  8.003225E+03  1.000000E-15  8.776793E-04  9.999998E-16  1.000023E-15  1.000000E-15  1.000000E-15  1.000000E-15  1.000000E+00  1.319151E-03  3.755099E-05  7.199313E-01  5.000000E-01  6.894142E-07 -7.514728E-06  0.000000E+00    1 
 1.250000E-01  3.750000E-01  6.250000E-01  1.931007E+05  2.000915E+05  8.195868E-01  1.804132E-01  9.999772E+02  2.473897E+00  3.095746E-05  9.999690E-01  9.946561E-01  5.343940E-03  8.000000E+00  6.037994E-01  6.059831E+00    3  4.698300E+00  1.000184E-15  9.999772E-26  3.131767E-02  5.007271E-09  8.003255E+03  1.000000E-15  8.776793E-04  9.999998E-16  1.000023E-15  1.000000E-15  1.000000E-15  1.000000E-15  1.000184E-15  9.999772E-26  2.977790E-05  3.661638E-09  8.003225E+03  1.000000E-15  8.776793E-04  9.999998E-16  1.000023E-15  1.000000E-15  1.000000E-15  1.000000E-15  1.000000E+00  1.319151E-03  3.755099E-05  7.199313E-01  5.000000E-01  6.894142E-07 -7.514728E-06  0.000000E+00    1 
 3.750000E-01  3.750000E-01  6.250000E-01  1.931007E+05  2.000915E+05  8.195868E-01  1.804132E-01  9.999772E+02  2.473897E+00  3.095746E-05  9.999690E-01  9.946561E-01  5.343940E-03  8.000000E+00  6.037994E-01  6.059831E+00    3  4.698300E+00  1.000184E-15  9.999772E-26  3.131767E-02  5.007271E-09  8.003255E+03  1.000000E-15  8.776793E-04  9.999998E-16  1.000023E-15  1.000000E-15  1.000000E-15  1.000000E-15  1.000184E-15  9.999772E-26  2.977790E-05  3.661638E-09  8.003225E+03  1.000000E-15  8.776793E-04  9.999998E-16  1.000023E-15  1.000000E-15  1.000000E-15  1.000000E-15  1.000000E+00  1.319151E-03  3.755099E-05  7.199313E-01  5.000000E-01  6.894142E-07 -7.514728E-06  0.000000E+00    1 
 6.250000E-01  3.750000E-01  6.250000E-01  1.931007E+05  2.000915E+05  8.195868E-01  1.804132E-01  9.999772E+02  2.473897E+00  3.095746E-05  9.999690E-01  9.946561E-01  5.343940E-03  8.000000E+00  6.037994E-01  6.059831E+00    3  4.698300E+00  1.000184E-15  9.999772E-26  3.131767E-02  5.007271E-09  8.003255E+03  1.000000E-15  8.776793E-04  9.999998E-16  1.000023E-15  1.000000E-15  1.000000E-15  1.000000E-15  1.000184E-15  9.999772E-26  2.977790E-05  3.661638E-09  8.003225E+03  1.000000E-15  8.776793E-04  9.999998E-16  1.000023E-15  1.000000E-15  1.000000E-15  1.000000E-15  1.000000E+00  1.319151E-03  3.755099E-05  7.199313E-01  5.000000E-01  6.894142E-07 -7.514728E-06  0.000000E+00    1 
 8.750000E-01  3.750000E-01  6.250000E-01  1.931007E+05  2.000915E+05  8.195868E-01  1.804132E-01  9.999772E+02  2.473897E+00  3.095746E-05  9.999690E-01  9.946561E-01  5.343940E-03  8.000000E+00  6.037994E-01  6.059831E+00    3  4.698300E+00  1.000184E-15  9.999772E-26  3.131767E-02  5.007271E-09  8.003255E+03  1.000000E-15  8.776793E-04  9.999998E-16  1.000023E-15  1.000000E-15  1.000000E-15  1.000000E-15  1.000184E-15  9.999772E-26  2.977790E-05  3.661638E-09  8.003225E+03  1.000000E-15  8.776793E-04  9.999998E-16  1.000023E-15  1.000000E-15  1.000000E-15  1.000000E-15  1.000000E+00  1.319151E-03  3.755099E-05  7.199313E-01  5.000000E-01  6.894142E-07 -7.514728E-06  0.000000E+00    1 
 1.250000E-01  6.250000E-01  6.250000E-01  1.931007E+05  2.000915E+05  8.195868E-01  1.804132E-01  9.999772E+02  2.473897E+00  3.095746E-05  9.999690E-01  9.946561E-01  5.343940E-03  8.000000E+00  6.037994E-01  6.059831E+00    3  4.698300E+00  1.000184E-15  9.999772E-26  3.131767E-02  5.007271E-09  8.003255E+03  1.000000E-15  8.776793E-04  9.999998E-16  1.000023E-15  1.000000E-15  1.000000E-15  1.000000E-15  1.000184E-15  9.999772E-26  2.977790E-05  3.661638E-09  8.003225E+03  1.000000E-15  8.776793E-04  9.999998E-16  1.000023E-15  1.000000E-15  1.000000E-15  1.000000E-15  1.000000E+00  1.319151E-03  3.755099E-05  7.199313E-01  5.000000E-01  6.894142E-07 -7.514728E-06  0.000000E+00    1 