TITLE = "  5.00000E+00 [d]"
VARIABLES="X [m]","Y [m]","Z [m]","Liquid Pressure [Pa]","Gas Pressure [Pa]","Liquid Saturation","Gas Saturation","Liquid Density [kg/m^3]","Gas Density [kg/m^3]","X_g^l","X_l^l","X_g^g","X_l^g","Temperature [C]","Liquid Energy [MJ/kmol]","Gas Energy [MJ/kmol]","Thermodynamic State","pH","Total DOM1 [M]","Total O2(aq) [M]","Total HCO3- [M]","Total Fe+++ [M]","Total Fe++ [M]","Total Tracer2 [M]","Total Tracer3 [M]","Total CH4(aq) [M]","Total Acetate- [M]","Total CH3OH [M]","Total SO4-- [M]","Total HS- [M]","Free DOM1 [M]","Free O2(aq) [M]","Free HCO3- [M]","Free Fe+++ [M]","Free Fe++ [M]","Free Tracer2 [M]","Free Tracer3 [M]","Free CH4(aq) [M]","Free Acetate- [M]","Free CH3OH [M]","Free SO4-- [M]","Free HS- [M]","Gamma H2O","CO2(aq) [M]","Fe(OH)3 VF [m^3 mnrl/m^3 bulk]","Fe(OH)2 VF [m^3 mnrl/m^3 bulk]","Rock(s) VF [m^3 mnrl/m^3 bulk]","Fe(OH)3 Rate [mol/m^3/sec]","Fe(OH)2 Rate [mol/m^3/sec]","Rock(s) Rate [mol/m^3/sec]","Material ID"
ZONE T="5.00000E+00", STRANDID=1, SOLUTIONTIME=5.00000E+00, I=4, J=4, K=4, DATAPACKING=POINT
 1.250000E-01  1.250000E-01  1.250000E-01  1.943910E+05  2.001805E+05  8.654252E-01  1.345748E-01  9.999772E+02  2.475000E+00  3.097130E-05  9.999690E-01  9.946584E-01  5.341565E-03  8.000000E+00  6.037993E-01  6.059743E+00    3  4.699771E+00  1.000301E-15  9.999772E-26  3.131767E-02  4.923149E-09  8.003255E+03  1.000000E-15  8.785836E-04  9.999997E-16  1.000038E-15  1.000000E-15  1.000000E-15  1.000000E-15  1.000301E-15  9.999772E-26  2.968571E-05  3.599789E-09  8.003225E+03  1.000000E-15  8.785836E-04  9.999997E-16  1.000038E-15  1.000000E-15  1.000000E-15  1.000000E-15  1.000000E+00  1.310619E-03  2.960827E-05  7.199143E-01  5.000000E-01  4.334358E-11 -7.497829E-06  0.000000E+00    1 
 3.750000E-01  1.250000E-01  1.250000E-01  1.943910E+05  2.001805E+05  8.654252E-01  1.345748E-01  9.999772E+02  2.475000E+00  3.097130E-05  9.999690E-01  9.946584E-01  5.341565E-03  8.000000E+00  6.037993E-01  6.059743E+00    3  4.699771E+00  1.000301E-15  9.999772E-26  3.131767E-02  4.923149E-09  8.003255E+03  1.000000E-15  8.785836E-04  9.999997E-16  1.000038E-15  1.000000E-15  1.000000E-15  1.000000E-15  1.000301E-15  9.999772E-26  2.968571E-05  3.599789E-09  8.003225E+03  1.000000E-15  8.785836E-04  9.999997E-16  1.000038E-15  1.000000E-15  1.000000E-15  1.000000E-15  1.000000E+00  1.310619E-03  2.960827E-05  7.199143E-01  5.000000E-01  4.334358E-11 -7.497829E-06  0.000000E+00    1 
 6.250000E-01  1.250000E-01  1.250000E-01  1.943910E+05  2.001805E+05  8.654252E-01  1.345748E-01  9.999772E+02  2.475000E+00  3.097130E-05  9.999690E-01  9.946584E-01  5.341565E-03  8.000000E+00  6.037993E-01  6.059743E+00    3  4.699771E+00  1.000301E-15  9.999772E-26  3.131767E-02  4.923149E-09  8.003255E+03  1.000000E-15  8.785836E-04  9.999997E-16  1.000038E-15  1.000000E-15  1.000000E-15  1.000000E-15  1.000301E-15  9.999772E-26  2.968571E-05  3.599789E-09  8.003225E+03  1.000000E-15  8.785836E-04  9.999997E-16  1.000038E-15  1.000000E-15  1.000000E-15  1.000000E-15  1.000000E+00  1.310619E-03  2.960827E-05  7.199143E-01  5.000000E-01  4.334358E-11 -7.497829E-06  0.000000E+00    1 
 8.750000E-01  1.250000E-01  1.250000E-01  1.943910E+05  2.001805E+05  8.654252E-01  1.345748E-01  9.999772E+02  2.475000E+00  3.097130E-05  9.999690E-01  9.946584E-01  5.341565E-03  8.000000E+00  6.037993E-01  6.059743E+00    3  4.699771E+00  1.000301E-15  9.999772E-26  3.131767E-02  4.923149E-09  8.003255E+03  1.000000E-15  8.785836E-04  9.999997E-16  1.000038E-15  1.000000E-15  1.000000E-15  1.000000E-15  1.000301E-15  9.999772E-26  2.968571E-05  3.599789E-09  8.003225E+03  1.000000E-15  8.785836E-04  9.999997E-16  1.000038E-15  1.000000E-15  1.000000E-15  1.000000E-15  1.000000E+00  1.310619E-03  2.960827E-05  7.199143E-01  5.000000E-01  4.334358E-11 -7.497829E-06  0.000000E+00    1 
 1.250000E-01  3.750000E-01  1.250000E-01  1.943910E+05  2.001805E+05  8.654252E-01  1.345748E-01  9.999772E+02  2.475000E+00  3.097130E-05  9.999690E-01  9.946584E-01  5.341565E-03  8.000000E+00  6.037993E-01  6.059743E+00    3  4.699771E+00  1.000301E-15  9.999772E-26  3.131767E-02  4.923149E-09  8.003255E+03  1.000000E-15  8.785836E-04  9.999997E-16  1.000038E-15  1.000000E-15  1.000000E-15  1.000000E-15  1.000301E-15  9.999772E-26  2.968571E-05  3.599789E-09  8.003225E+03  1.000000E-15  8.785836E-04  9.999997E-16  1.000038E-15  1.000000E-15  1.000000E-15  1.000000E-15  1.000000E+00  1.310619E-03  2.960827E-05  7.199143E-01  5.000000E-01  4.334358E-11 -7.497829E-06  0.000000E+00    1 
 3.750000E-01  3.750000E-01  1.250000E-01  1.943910E+05  2.001805E+05  8.654252E-01  1.345748E-01  9.999772E+02  2.475000E+00  3.097130E-05  9.999690E-01  9.946584E-01  5.341565E-03  8.000000E+00  6.037993E-01  6.059743E+00    3  4.699771E+00  1.000301E-15  9.999772E-26  3.131767E-02  4.923149E-09  8.003255E+03  1.000000E-15  8.785836E-04  9.999997E-16  1.000038E-15  1.000000E-15  1.000000E-15  1.000000E-15  1.000301E-15  9.999772E-26  2.968571E-05  3.599789E-09  8.003225E+03  1.000000E-15  8.785836E-04  9.999997E-16  1.000038E-15  1.000000E-15  1.000000E-15  1.000000E-15  1.000000E+00  1.310619E-03  2.960827E-05  7.199143E-01  5.000000E-01  4.334358E-11 -7.497829E-06  0.000000E+00    1 
 6.250000E-01  3.750000E-01  1.250000E-01  1.943910E+05  2.001805E+05  8.654252E-01  1.345748E-01  9.999772E+02  2.475000E+00  3.097130E-05  9.999690E-01  9.946584E-01  5.341565E-03  8.000000E+00  6.037993E-01  6.059743E+00    3  4.699771E+00  1.000301E-15  9.999772E-26  3.131767E-02  4.923149E-09  8.003255E+03  1.000000E-15  8.785836E-04  9.999997E-16  1.000038E-15  1.000000E-15  1.000000E-15  1.000000E-15  1.000301E-15  9.999772E-26  2.968571E-05  3.599789E-09  8.003225E+03  1.000000E-15  8.785836E-04  9.999997E-16  1.000038E-15  1.000000E-15  1.000000E-15  1.000000E-15  1.000000E+00  1.310619E-03  2.960827E-05  7.199143E-01  5.000000E-01  4.334358E-11 -7.497829E-06  0.000000E+00    1 
 8.750000E-01  3.750000E-01  1.250000E-01  1.943910E+05  2.001805E+05  8.654252E-01  1.345748E-01  9.999772E+02  2.475000E+00  3.097130E-05  9.999690E-01  9.946584E-01  5.341565E-03  8.000000E+00  6.037993E-01  6.059743E+00    3  4.699771E+00  1.000301E-15  9.999772E-26  3.131767E-02  4.923149E-09  8.003255E+03  1.000000E-15  8.785836E-04  9.999997E-16  1.000038E-15  1.000000E-15  1.000000E-15  1.000000E-15  1.000301E-15  9.999772E-26  2.968571E-05  3.599789E-09  8.003225E+03  1.000000E-15  8.785836E-04  9.999997E-16  1.000038E-15  1.000000E-15  1.000000E-15  1.000000E-15  1.000000E+00  1.310619E-03  2.960827E-05  7.199143E-01  5.000000E-01  4.334358E-11 -7.497829E-06  0.000000E+00    1 
 1.250000E-01  6.250000E-01  1.250000E-01  1.943910E+05  2.001805E+05  8.654252E-01  1.345748E-01  9.999772E+02  2.475000E+00  3.097130E-05  9.999690E-01  9.946584E-01  5.341565E-03  8.000000E+00  6.037993E-01  6.059743E+00    3  4.699771E+00  1.000301E-15  9.999772E-26  3.131767E-02  4.923149E-09  8.003255E+03  1.000000E-15  8.785836E-04  9.999997E-16  1.000038E-15  1.000000E-15  1.000000E-15  1.000000E-15  1.000301E-15  9.999772E-26  2.968571E-05  3.599789E-09  8.003225E+03  1.000000E-15  8.785836E-04  9.999997E-16  1.000038E-15  1.000000E-15  1.000000E-15  1.000000E-15  1.000000E+00  1.310619E-03  2.960827E-05  7.199143E-01  5.000000E-01  4.334358E-11 -7.497829E-06  0.000000E+00    1 
 3.750000E-01  6.250000E-01  1.250000E-01  1.943910E+05  2.001805E+05  8.654252E-01  1.345748E-01  9.999772E+02  2.475000E+00  3.097130E-05  9.999690E-01  9.946584E-01  5.341565E-03  8.000000E+00  6.037993E-01  6.059743E+00    3  4.699771E+00  1.000301E-15  9.999772E-26  3.131767E-02  4.923149E-09  8.003255E+03  1.000000E-15  8.785836E-04  9.999997E-16  1.000038E-15  1.000000E-15  1.000000E-15  1.000000E-15  1.000301E-15  9.999772E-26  2.968571E-05  3.599789E-09  8.003225E+03  1.000000E-15  8.785836E-04  9.999997E-16  1.000038E-15  1.000000E-15  1.000000E-15  1.000000E-15  1.000000E+00  1.310619E-03  2.960827E-05  7.199143E-01  5.000000E-01  4.334358E-11 -7.497829E-06  0.000000E+00    1 
 6.250000E-01  6.250000E-01  1.250000E-01  1.943910E+05  2.001805E+05  8.654252E-01  1.345748E-01  9.999772E+02  2.475000E+00  3.097130E-05  9.999690E-01  9.946584E-01  5.341565E-03  8.000000E+00  6.037993E-01  6.059743E+00    3  4.699771E+00  1.000301E-15  9.999772E-26  3.131767E-02  4.923149E-09  8.003255E+03  1.000000E-15  8.785836E-04  9.999997E-16  1.000038E-15  1.000000E-15  1.000000E-15  1.000000E-15  1.000301E-15  9.999772E-26  2.968571E-05  3.599789E-09  8.003225E+03  1.000000E-15  8.785836E-04  9.999997E-16  1.000038E-15  1.000000E-15  1.000000E-15  1.000000E-15  1.000000E+00  1.310619E-03  2.960827E-05  7.199143E-01  5.000000E-01  4.334358E-11 -7.497829E-06  0.000000E+00    1 
 8.750000E-01  6.250000E-01  1.250000E-01  1.943910E+05  2.001805E+05  8.654252E-01  1.345748E-01  9.999772E+02  2.475000E+00  3.097130E-05  9.999690E-01  9.946584E-01  5.341565E-03  8.000000E+00  6.037993E-01  6.059743E+00    3  4.699771E+00  1.000301E-15  9.999772E-26  3.131767E-02  4.923149E-09  8.003255E+03  1.000000E-15  8.785836E-04  9.999997E-16  1.000038E-15  1.000000E-15  1.000000E-15  1.000000E-15  1.000301E-15  9.999772E-26  2.968571E-05  3.599789E-09  8.003225E+03  1.000000E-15  8.785836E-04  9.999997E-16  1.000038E-15  1.000000E-15  1.000000E-15  1.000000E-15  1.000000E+00  1.310619E-03  2.960827E-05  7.199143E-01  5.000000E-01  4.334358E-11 -7.497829E-06  0.000000E+00    1 
 1.250000E-01  8.750000E-01  1.250000E-01  1.943910E+05  2.001805E+05  8.654252E-01  1.345748E-01  9.999772E+02  2.475000E+00  3.097130E-05  9.999690E-01  9.946584E-01  5.341565E-03  8.000000E+00  6.037993E-01  6.059743E+00    3  4.699771E+00  1.000301E-15  9.999772E-26  3.131767E-02  4.923149E-09  8.003255E+03  1.000000E-15  8.785836E-04  9.999997E-16  1.000038E-15  1.000000E-15  1.000000E-15  1.000000E-15  1.000301E-15  9.999772E-26  2.968571E-05  3.599789E-09  8.003225E+03  1.000000E-15  8.785836E-04  9.999997E-16  1.000038E-15  1.000000E-15  1.000000E-15  1.000000E-15  1.000000E+00  1.310619E-03  2.960827E-05  7.199143E-01  5.000000E-01  4.334358E-11 -7.497829E-06  0.000000E+00    1 
 3.750000E-01  8.750000E-01  1.250000E-01  1.943910E+05  2.001805E+05  8.654252E-01  1.345748E-01  9.999772E+02  2.475000E+00  3.097130E-05  9.999690E-01  9.946584E-01  5.341565E-03  8.000000E+00  6.037993E-01  6.059743E+00    3  4.699771E+00  1.000301E-15  9.999772E-26  3.131767E-02  4.923149E-09  8.003255E+03  1.000000E-15  8.785836E-04  9.999997E-16  1.000038E-15  1.000000E-15  1.000000E-15  1.000000E-15  1.000301E-15  9.999772E-26  2.968571E-05  3.599789E-09  8.003225E+03  1.000000E-15  8.785836E-04  9.999997E-16  1.000038E-15  1.000000E-15  1.000000E-15  1.000000E-15  1.000000E+00  1.310619E-03  2.960827E-05  7.199143E-01  5.000000E-01  4.334358E-11 -7.497829E-06  0.000000E+00    1 
 6.250000E-01  8.750000E-01  1.250000E-01  1.943910E+05  2.001805E+05  8.654252E-01  1.345748E-01  9.999772E+02  2.475000E+00  3.097130E-05  9.999690E-01  9.946584E-01  5.341565E-03  8.000000E+00  6.037993E-01  6.059743E+00    3  4.699771E+00  1.000301E-15  9.999772E-26  3.131767E-02  4.923149E-09  8.003255E+03  1.000000E-15  8.785836E-04  9.999997E-16  1.000038E-15  1.000000E-15  1.000000E-15  1.000000E-15  1.000301E-15  9.999772E-26  2.968571E-05  3.599789E-09  8.003225E+03  1.000000E-15  8.785836E-04  9.999997E-16  1.000038E-15  1.000000E-15  1.000000E-15  1.000000E-15  1.000000E+00  1.310619E-03  2.960827E-05  7.199143E-01  5.000000E-01  4.334358E-11 -7.497829E-06  0.000000E+00    1 
 8.750000E-01  8.750000E-01  1.250000E-01  1.943910E+05  2.001805E+05  8.654252E-01  1.345748E-01  9.999772E+02  2.475000E+00  3.097130E-05  9.999690E-01  9.946584E-01  5.341565E-03  8.000000E+00  6.037993E-01  6.059743E+00    3  4.699771E+00  1.000301E-15  9.999772E-26  3.131767E-02  4.923149E-09  8.003255E+03  1.000000E-15  8.785836E-04  9.999997E-16  1.000038E-15  1.000000E-15  1.000000E-15  1.000000E-15  1.000301E-15  9.999772E-26  2.968571E-05  3.599789E-09  8.003225E+03  1.000000E-15  8.785836E-04  9.999997E-16  1.000038E-15  1.000000E-15  1.000000E-15  1.000000E-15  1.000000E+00  1.310619E-03  2.960827E-05  7.199143E-01  5.000000E-01  4.334358E-11 -7.497829E-06  0.000000E+00    1 
 1.250000E-01  1.250000E-01  3.750000E-01  1.933729E+05  2.001405E+05  8.281700E-01  1.718300E-01  9.999772E+02  2.474505E+00  3.096509E-05  9.999690E-01  9.946574E-01  5.342630E-03  8.000000E+00  6.037993E-01  6.059783E+00    3  4.699282E+00  1.000263E-15  9.999772E-26  3.131767E-02  4.939650E-09  8.003255E+03  1.000000E-15  8.785867E-04  9.999998E-16  1.000033E-15  1.000000E-15  1.000000E-15  1.000000E-15  1.000263E-15  9.999772E-26  2.971630E-05  3.611966E-09  8.003225E+03  1.000000E-15  8.785867E-04  9.999998E-16  1.000033E-15  1.000000E-15  1.000000E-15  1.000000E-15  1.000000E+00  1.313447E-03  2.961089E-05  7.199142E-01  5.000000E-01  1.324813E-10 -7.503454E-06  0.000000E+00    1 
 3.750000E-01  1.250000E-01  3.750000E-01  1.933729E+05  2.001405E+05  8.281700E-01  1.718300E-01  9.999772E+02  2.474505E+00  3.096509E-05  9.999690E-01  9.946574E-01  5.342630E-03  8.000000E+00  6.037993E-01  6.059783E+00    3  4.699282E+00  1.000263E-15  9.999772E-26  3.131767E-02  4.939650E-09  8.003255E+03  1.000000E-15  8.785867E-04  9.999998E-16  1.000033E-15  1.000000E-15  1.000000E-15  1.000000E-15  1.000263E-15  9.999772E-26  2.971630E-05  3.611966E-09  8.003225E+03  1.000000E-15  8.785867E-04  9.999998E-16  1.000033E-15  1.000000E-15  1.000000E-15  1.000000E-15  1.000000E+00  1.313447E-03  2.961089E-05  7.199142E-01  5.000000E-01  1.324813E-10 -7.503454E-06  0.000000E+00    1 
 6.250000E-01  1.250000E-01  3.750000E-01  1.933729E+05  2.001405E+05  8.281700E-01  1.718300E-01  9.999772E+02  2.474505E+00  3.096509E-05  9.999690E-01  9.946574E-01  5.342630E-03  8.000000E+00  6.037993E-01  6.059783E+00    3  4.699282E+00  1.000263E-15  9.999772E-26  3.131767E-02  4.939650E-09  8.003255E+03  1.000000E-15  8.785867E-04  9.999998E-16  1.000033E-15  1.000000E-15  1.000000E-15  1.000000E-15  1.000263E-15  9.999772E-26  2.971630E-05  3.611966E-09  8.003225E+03  1.000000E-15  8.785867E-04  9.999998E-16  1.000033E-15  1.000000E-15  1.000000E-15  1.000000E-15  1.000000E+00  1.313447E-03  2.961089E-05  7.199142E-01  5.000000E-01  1.324813E-10 -7.503454E-06  0.000000E+00    1 
 8.750000E-01  1.250000E-01  3.750000E-01  1.933729E+05  2.001405E+05  8.281700E-01  1.718300E-01  9.999772E+02  2.474505E+00  3.096509E-05  9.999690E-01  9.946574E-01  5.342630E-03  8.000000E+00  6.037993E-01  6.059783E+00    3  4.699282E+00  1.000263E-15  9.999772E-26  3.131767E-02  4.939650E-09  8.003255E+03  1.000000E-15  8.785867E-04  9.999998E-16  1.000033E-15  1.000000E-15  1.000000E-15  1.000000E-15  1.000263E-15  9.999772E-26  2.971630E-05  3.611966E-09  8.003225E+03  1.000000E-15  8.785867E-04  9.999998E-16  1.000033E-15  1.000000E-15  1.000000E-15  1.000000E-15  1.000000E+00  1.313447E-03  2.961089E-05  7.199142E-01  5.000000E-01  1.324813E-10 -7.503454E-06  0.000000E+00    1 
 1.250000E-01  3.750000E-01  3.750000E-01  1.933729E+05  2.001405E+05  8.281700E-01  1.718300E-01  9.999772E+02  2.474505E+00  3.096509E-05  9.999690E-01  9.946574E-01  5.342630E-03  8.000000E+00  6.037993E-01  6.059783E+00    3  4.699282E+00  1.000263E-15  9.999772E-26  3.131767E-02  4.939650E-09  8.003255E+03  1.000000E-15  8.785867E-04  9.999998E-16  1.000033E-15  1.000000E-15  1.000000E-15  1.000000E-15  1.000263E-15  9.999772E-26  2.971630E-05  3.611966E-09  8.003225E+03  1.000000E-15  8.785867E-04  9.999998E-16  1.000033E-15  1.000000E-15  1.000000E-15  1.000000E-15  1.000000E+00  1.313447E-03  2.961089E-05  7.199142E-01  5.000000E-01  1.324813E-10 -7.503454E-06  0.000000E+00    1 
 3.750000E-01  3.750000E-01  3.750000E-01  1.933729E+05  2.001405E+05  8.281700E-01  1.718300E-01  9.999772E+02  2.474505E+00  3.096509E-05  9.999690E-01  9.946574E-01  5.342630E-03  8.000000E+00  6.037993E-01  6.059783E+00    3  4.699282E+00  1.000263E-15  9.999772E-26  3.131767E-02  4.939650E-09  8.003255E+03  1.000000E-15  8.785867E-04  9.999998E-16  1.000033E-15  1.000000E-15  1.000000E-15  1.000000E-15  1.000263E-15  9.999772E-26  2.971630E-05  3.611966E-09  8.003225E+03  1.000000E-15  8.785867E-04  9.999998E-16  1.000033E-15  1.000000E-15  1.000000E-15  1.000000E-15  1.000000E+00  1.313447E-03  2.961089E-05  7.199142E-01  5.000000E-01  1.324813E-10 -7.503454E-06  0.000000E+00    1 
 6.250000E-01  3.750000E-01  3.750000E-01  1.933729E+05  2.001405E+05  8.281700E-01  1.718300E-01  9.999772E+02  2.474505E+00  3.096509E-05  9.999690E-01  9.946574E-01  5.342630E-03  8.000000E+00  6.037993E-01  6.059783E+00    3  4.699282E+00  1.000263E-15  9.999772E-26  3.131767E-02  4.939650E-09  8.003255E+03  1.000000E-15  8.785867E-04  9.999998E-16  1.000033E-15  1.000000E-15  1.000000E-15  1.000000E-15  1.000263E-15  9.999772E-26  2.971630E-05  3.611966E-09  8.003225E+03  1.000000E-15  8.785867E-04  9.999998E-16  1.000033E-15  1.000000E-15  1.000000E-15  1.000000E-15  1.000000E+00  1.313447E-03  2.961089E-05  7.199142E-01  5.000000E-01  1.324813E-10 -7.503454E-06  0.000000E+00    1 
 8.750000E-01  3.750000E-01  3.750000E-01  1.933729E+05  2.001405E+05  8.281700E-01  1.718300E-01  9.999772E+02  2.474505E+00  3.096509E-05  9.999690E-01  9.946574E-01  5.342630E-03  8.000000E+00  6.037993E-01  6.059783E+00    3  4.699282E+00  1.000263E-15  9.999772E-26  3.131767E-02  4.939650E-09  8.003255E+03  1.000000E-15  8.785867E-04  9.999998E-16  1.000033E-15  1.000000E-15  1.000000E-15  1.000000E-15  1.000263E-15  9.999772E-26  2.971630E-05  3.611966E-09  8.003225E+03  1.000000E-15  8.785867E-04  9.999998E-16  1.000033E-15  1.000000E-15  1.000000E-15  1.000000E-15  1.000000E+00  1.313447E-03  2.961089E-05  7.199142E-01  5.000000E-01  1.324813E-10 -7.503454E-06  0.000000E+00    1 
 1.250000E-01  6.250000E-01  3.750000E-01  1.933729E+05  2.001405E+05  8.281700E-01  1.718300E-01  9.999772E+02  2.474505E+00  3.096509E-05  9.999690E-01  9.946574E-01  5.342630E-03  8.000000E+00  6.037993E-01  6.059783E+00    3  4.699282E+00  1.000263E-15  9.999772E-26  3.131767E-02  4.939650E-09  8.003255E+03  1.000000E-15  8.785867E-04  9.999998E-16  1.000033E-15  1.000000E-15  1.000000E-15  1.000000E-15  1.000263E-15  9.999772E-26  2.971630E-05  3.611966E-09  8.003225E+03  1.000000E-15  8.785867E-04  9.999998E-16  1.000033E-15  1.000000E-15  1.000000E-15  1.000000E-15  1.000000E+00  1.313447E-03  2.961089E-05  7.199142E-01  5.000000E-01  1.324813E-10 -7.503454E-06  0.000000E+00    1 
 3.750000E-01  6.250000E-01  3.750000E-01  1.933729E+05  2.001405E+05  8.281700E-01  1.718300E-01  9.999772E+02  2.474505E+00  3.096509E-05  9.999690E-01  9.946574E-01  5.342630E-03  8.000000E+00  6.037993E-01  6.059783E+00    3  4.699282E+00  1.000263E-15  9.999772E-26  3.131767E-02  4.939650E-09  8.003255E+03  1.000000E-15  8.785867E-04  9.999998E-16  1.000033E-15  1.000000E-15  1.000000E-15  1.000000E-15  1.000263E-15  9.999772E-26  2.971630E-05  3.611966E-09  8.003225E+03  1.000000E-15  8.785867E-04  9.999998E-16  1.000033E-15  1.000000E-15  1.000000E-15  1.000000E-15  1.000000E+00  1.313447E-03  2.961089E-05  7.199142E-01  5.000000E-01  1.324813E-10 -7.503454E-06  0.000000E+00    1 
 6.250000E-01  6.250000E-01  3.750000E-01  1.933729E+05  2.001405E+05  8.281700E-01  1.718300E-01  9.999772E+02  2.474505E+00  3.096509E-05  9.999690E-01  9.946574E-01  5.342630E-03  8.000000E+00  6.037993E-01  6.059783E+00    3  4.699282E+00  1.000263E-15  9.999772E-26  3.131767E-02  4.939650E-09  8.003255E+03  1.000000E-15  8.785867E-04  9.999998E-16  1.000033E-15  1.000000E-15  1.000000E-15  1.000000E-15  1.000263E-15  9.999772E-26  2.971630E-05  3.611966E-09  8.003225E+03  1.000000E-15  8.785867E-04  9.999998E-16  1.000033E-15  1.000000E-15  1.000000E-15  1.000000E-15  1.000000E+00  1.313447E-03  2.961089E-05  7.199142E-01  5.000000E-01  1.324813E-10 -7.503454E-06  0.000000E+00    1 
 8.750000E-01  6.250000E-01  3.750000E-01  1.933729E+05  2.001405E+05  8.281700E-01  1.718300E-01  9.999772E+02  2.474505E+00  3.096509E-05  9.999690E-01  9.946574E-01  5.342630E-03  8.000000E+00  6.037993E-01  6.059783E+00    3  4.699282E+00  1.000263E-15  9.999772E-26  3.131767E-02  4.939650E-09  8.003255E+03  1.000000E-15  8.785867E-04  9.999998E-16  1.000033E-15  1.000000E-15  1.000000E-15  1.000000E-15  1.000263E-15  9.999772E-26  2.971630E-05  3.611966E-09  8.003225E+03  1.000000E-15  8.785867E-04  9.999998E-16  1.000033E-15  1.000000E-15  1.000000E-15  1.000000E-15  1.000000E+00  1.313447E-03  2.961089E-05  7.199142E-01  5.000000E-01  1.324813E-10 -7.503454E-06  0.000000E+00    1 
 1.250000E-01  8.750000E-01  3.750000E-01  1.933729E+05  2.001405E+05  8.281700E-01  1.718300E-01  9.999772E+02  2.474505E+00  3.096509E-05  9.999690E-01  9.946574E-01  5.342630E-03  8.000000E+00  6.037993E-01  6.059783E+00    3  4.699282E+00  1.000263E-15  9.999772E-26  3.131767E-02  4.939650E-09  8.003255E+03  1.000000E-15  8.785867E-04  9.999998E-16  1.000033E-15  1.000000E-15  1.000000E-15  1.000000E-15  1.000263E-15  9.999772E-26  2.971630E-05  3.611966E-09  8.003225E+03  1.000000E-15  8.785867E-04  9.999998E-16  1.000033E-15  1.000000E-15  1.000000E-15  1.000000E-15  1.000000E+00  1.313447E-03  2.961089E-05  7.199142E-01  5.000000E-01  1.324813E-10 -7.503454E-06  0.000000E+00    1 
 3.750000E-01  8.750000E-01  3.750000E-01  1.933729E+05  2.001405E+05  8.281700E-01  1.718300E-01  9.999772E+02  2.474505E+00  3.096509E-05  9.999690E-01  9.946574E-01  5.342630E-03  8.000000E+00  6.037993E-01  6.059783E+00    3  4.699282E+00  1.000263E-15  9.999772E-26  3.131767E-02  4.939650E-09  8.003255E+03  1.000000E-15  8.785867E-04  9.999998E-16  1.000033E-15  1.000000E-15  1.000000E-15  1.000000E-15  1.000263E-15  9.999772E-26  2.971630E-05  3.611966E-09  8.003225E+03  1.000000E-15  8.785867E-04  9.999998E-16  1.000033E-15  1.000000E-15  1.000000E-15  1.000000E-15  1.000000E+00  1.313447E-03  2.961089E-05  7.199142E-01  5.000000E-01  1.324813E-10 -7.503454E-06  0.000000E+00    1 
 6.250000E-01  8.750000E-01  3.750000E-01  1.933729E+05  2.001405E+05  8.281700E-01  1.718300E-01  9.999772E+02  2.474505E+00  3.096509E-05  9.999690E-01  9.946574E-01  5.342630E-03  8.000000E+00  6.037993E-01  6.059783E+00    3  4.699282E+00  1.000263E-15  9.999772E-26  3.131767E-02  4.939650E-09  8.003255E+03  1.000000E-15  8.785867E-04  9.999998E-16  1.000033E-15  1.000000E-15  1.000000E-15  1.000000E-15  1.000263E-15  9.999772E-26  2.971630E-05  3.611966E-09  8.003225E+03  1.000000E-15  8.785867E-04  9.999998E-16  1.000033E-15  1.000000E-15  1.000000E-15  1.000000E-15  1.000000E+00  1.313447E-03  2.961089E-05  7.199142E-01  5.000000E-01  1.324813E-10 -7.503454E-06  0.000000E+00    1 
 8.750000E-01  8.750000E-01  3.750000E-01  1.933729E+05  2.001405E+05  8.281700E-01  1.718300E-01  9.999772E+02  2.474505E+00  3.096509E-05  9.999690E-01  9.946574E-01  5.342630E-03  8.000000E+00  6.037993E-01  6.059783E+00    3  4.699282E+00  1.000263E-15  9.999772E-26  3.131767E-02  4.939650E-09  8.003255E+03  1.000000E-15  8.785867E-04  9.999998E-16  1.000033E-15  1.000000E-15  1.000000E-15  1.000000E-15  1.000263E-15  9.999772E-26  2.971630E-05  3.611966E-09  8.003225E+03  1.000000E-15  8.785867E-04  9.999998E-16  1.000033E-15  1.000000E-15  1.000000E-15  1.000000E-15  1.000000E+00  1.313447E-03  2.961089E-05  7.199142E-01  5.000000E-01  1.324813E-10 -7.503454E-06  0.000000E+00    1 
 1.250000E-01  1.250000E-01  6.250000E-01  1.933717E+05  2.000925E+05  8.299734E-01  1.700266E-01  9.999772E+02  2.473909E+00  3.095761E-05  9.999690E-01  9.946561E-01  5.343914E-03  8.000000E+00  6.037994E-01  6.059830E+00    3  4.698287E+00  1.000187E-15  9.999772E-26  3.131767E-02  5.007967E-09  8.003255E+03  1.000000E-15  8.785930E-04  9.999998E-16  1.000024E-15  1.000000E-15  1.000000E-15  1.000000E-15  1.000187E-15  9.999772E-26  2.977866E-05  3.662150E-09  8.003225E+03  1.000000E-15  8.785930E-04  9.999998E-16  1.000024E-15  1.000000E-15  1.000000E-15  1.000000E-15  1.000000E+00  1.319222E-03  3.961045E-05  7.199141E-01  5.000000E-01  6.950697E-07 -7.514867E-06  0.000000E+00    1 
 3.750000E-01  1.250000E-01  6.250000E-01  1.933717E+05  2.000925E+05  8.299734E-01  1.700266E-01  9.999772E+02  2.473909E+00  3.095761E-05  9.999690E-01  9.946561E-01  5.343914E-03  8.000000E+00  6.037994E-01  6.059830E+00    3  4.698287E+00  1.000187E-15  9.999772E-26  3.131767E-02  5.007967E-09  8.003255E+03  1.000000E-15  8.785930E-04  9.999998E-16  1.000024E-15  1.000000E-15  1.000000E-15  1.000000E-15  1.000187E-15  9.999772E-26  2.977866E-05  3.662150E-09  8.003225E+03  1.000000E-15  8.785930E-04  9.999998E-16  1.000024E-15  1.000000E-15  1.000000E-15  1.000000E-15  1.000000E+00  1.319222E-03  3.961045E-05  7.199141E-01  5.000000E-01  6.950697E-07 -7.514867E-06  0.000000E+00    1 
 6.250000E-01  1.250000E-01  6.250000E-01  1.933717E+05  2.000925E+05  8.299734E-01  1.700266E-01  9.999772E+02  2.473909E+00  3.095761E-05  9.999690E-01  9.946561E-01  5.343914E-03  8.000000E+00  6.037994E-01  6.059830E+00    3  4.698287E+00  1.000187E-15  9.999772E-26  3.131767E-02  5.007967E-09  8.003255E+03  1.000000E-15  8.785930E-04  9.999998E-16  1.000024E-15  1.000000E-15  1.000000E-15  1.000000E-15  1.000187E-15  9.999772E-26  2.977866E-05  3.662150E-09  8.003225E+03  1.000000E-15  8.785930E-04  9.999998E-16  1.000024E-15  1.000000E-15  1.000000E-15  1.000000E-15  1.000000E+00  1.319222E-03  3.961045E-05  7.199141E-01  5.000000E-01  6.950697E-07 -7.514867E-06  0.000000E+00    1 
 8.750000E-01  1.250000E-01  6.250000E-01  1.933717E+05  2.000925E+05  8.299734E-01  1.700266E-01  9.999772E+02  2.473909E+00  3.095761E-05  9.999690E-01  9.946561E-01  5.343914E-03  8.000000E+00  6.037994E-01  6.059830E+00    3  4.698287E+00  1.000187E-15  9.999772E-26  3.131767E-02  5.007967E-09  8.003255E+03  1.000000E-15  8.785930E-04  9.999998E-16  1.000024E-15  1.000000E-15  1.000000E-15  1.000000E-15  1.000187E-15  9.999772E-26  2.977866E-05  3.662150E-09  8.003225E+03  1.000000E-15  8.785930E-04  9.999998E-16  1.000024E-15  1.000000E-15  1.000000E-15  1.000000E-15  1.000000E+00  1.319222E-03  3.961045E-05  7.199141E-01  5.000000E-01  6.950697E-07 -7.514867E-06  0.000000E+00    1 
 1.250000E-01  3.750000E-01  6.250000E-01  1.933717E+05  2.000925E+05  8.299734E-01  1.700266E-01  9.999772E+02  2.473909E+00  3.095761E-05  9.999690E-01  9.946561E-01  5.343914E-03  8.000000E+00  6.037994E-01  6.059830E+00    3  4.698287E+00  1.000187E-15  9.999772E-26  3.131767E-02  5.007967E-09  8.003255E+03  1.000000E-15  8.785930E-04  9.999998E-16  1.000024E-15  1.000000E-15  1.000000E-15  1.000000E-15  1.000187E-15  9.999772E-26  2.977866E-05  3.662150E-09  8.003225E+03  1.000000E-15  8.785930E-04  9.999998E-16  1.000024E-15  1.000000E-15  1.000000E-15  1.000000E-15  1.000000E+00  1.319222E-03  3.961045E-05  7.199141E-01  5.000000E-01  6.950697E-07 -7.514867E-06  0.000000E+00    1 
 3.750000E-01  3.750000E-01  6.250000E-01  1.933717E+05  2.000925E+05  8.299734E-01  1.700266E-01  9.999772E+02  2.473909E+00  3.095761E-05  9.999690E-01  9.946561E-01  5.343914E-03  8.000000E+00  6.037994E-01  6.059830E+00    3  4.698287E+00  1.000187E-15  9.999772E-26  3.131767E-02  5.007967E-09  8.003255E+03  1.000000E-15  8.785930E-04  9.999998E-16  1.000024E-15  1.000000E-15  1.000000E-15  1.000000E-15  1.000187E-15  9.999772E-26  2.977866E-05  3.662150E-09  8.003225E+03  1.000000E-15  8.785930E-04  9.999998E-16  1.000024E-15  1.000000E-15  1.000000E-15  1.000000E-15  1.000000E+00  1.319222E-03  3.961045E-05  7.199141E-01  5.000000E-01  6.950697E-07 -7.514867E-06  0.000000E+00    1 
 6.250000E-01  3.750000E-01  6.250000E-01  1.933717E+05  2.000925E+05  8.299734E-01  1.700266E-01  9.999772E+02  2.473909E+00  3.095761E-05  9.999690E-01  9.946561E-01  5.343914E-03  8.000000E+00  6.037994E-01  6.059830E+00    3  4.698287E+00  1.000187E-15  9.999772E-26  3.131767E-02  5.007967E-09  8.003255E+03  1.000000E-15  8.785930E-04  9.999998E-16  1.000024E-15  1.000000E-15  1.000000E-15  1.000000E-15  1.000187E-15  9.999772E-26  2.977866E-05  3.662150E-09  8.003225E+03  1.000000E-15  8.785930E-04  9.999998E-16  1.000024E-15  1.000000E-15  1.000000E-15  1.000000E-15  1.000000E+00  1.319222E-03  3.961045E-05  7.199141E-01  5.000000E-01  6.950697E-07 -7.514867E-06  0.000000E+00    1 
 8.750000E-01  3.750000E-01  6.250000E-01  1.933717E+05  2.000925E+05  8.299734E-01  1.700266E-01  9.999772E+02  2.473909E+00  3.095761E-05  9.999690E-01  9.946561E-01  5.343914E-03  8.000000E+00  6.037994E-01  6.059830E+00    3  4.698287E+00  1.000187E-15  9.999772E-26  3.131767E-02  5.007967E-09  8.003255E+03  1.000000E-15  8.785930E-04  9.999998E-16  1.000024E-15  1.000000E-15  1.000000E-15  1.000000E-15  1.000187E-15  9.999772E-26  2.977866E-05  3.662150E-09  8.003225E+03  1.000000E-15  8.785930E-04  9.999998E-16  1.000024E-15  1.000000E-15  1.000000E-15  1.000000E-15  1.000000E+00  1.319222E-03  3.961045E-05  7.199141E-01  5.000000E-01  6.950697E-07 -7.514867E-06  0.000000E+00    1 
 1.250000E-01  6.250000E-01  6.250000E-01  1.933717E+05  2.000925E+05  8.299734E-01  1.700266E-01  9.999772E+02  2.473909E+00  3.095761E-05  9.999690E-01  9.946561E-01  5.343914E-03  8.000000E+00  6.037994E-01  6.059830E+00    3  4.698287E+00  1.000187E-15  9.999772E-26  3.131767E-02  5.007967E-09  8.003255E+03  1.000000E-15  8.785930E-04  9.999998E-16  1.000024E-15  1.000000E-15  1.000000E-15  1.000000E-15  1.000187E-15  9.999772E-26  2.977866E-05  3.662150E-09  8.003225E+03  1.000000E-15  8.785930E-04  9.999998E-16  1.000024E-15  1.000000E-15  1.000000E-15  1.000000E-15  1.000000E+00  1.319222E-03  3.961045E-05  7.199141E-01  5.000000E-01  6.950697E-07 -7.514867E-06  0.000000E+00    1 