TITLE = "  3.00000E+00 [d]"
VARIABLES="X [m]","Y [m]","Z [m]","Liquid Pressure [Pa]","Gas Pressure [Pa]","Liquid Saturation","Gas Saturation","Liquid Density [kg/m^3]","Gas Density [kg/m^3]","X_g^l","X_l^l","X_g^g","X_l^g","Temperature [C]","Liquid Energy [MJ/kmol]","Gas Energy [MJ/kmol]","Thermodynamic State","pH","Total DOM1 [M]","Total O2(aq) [M]","Total HCO3- [M]","Total Fe+++ [M]","Total Fe++ [M]","Total Tracer2 [M]","Total Tracer3 [M]","Total CH4(aq) [M]","Total Acetate- [M]","Total CH3OH [M]","Total SO4-- [M]","Total HS- [M]","Total Cl- [M]","Free DOM1 [M]","Free O2(aq) [M]","Free HCO3- [M]","Free Fe+++ [M]","Free Fe++ [M]","Free Tracer2 [M]","Free Tracer3 [M]","Free CH4(aq) [M]","Free Acetate- [M]","Free CH3OH [M]","Free SO4-- [M]","Free HS- [M]","Free Cl- [M]","Gamma H2O","CO2(aq) [M]","Fe(OH)3 VF [m^3 mnrl/m^3 bulk]","Fe(OH)2 VF [m^3 mnrl/m^3 bulk]","Rock(s) VF [m^3 mnrl/m^3 bulk]","Fe(OH)3 Rate [mol/m^3/sec]","Fe(OH)2 Rate [mol/m^3/sec]","Rock(s) Rate [mol/m^3/sec]","Material ID"
ZONE T="3.00000E+00", STRANDID=1, SOLUTIONTIME=3.00000E+00, I=4, J=4, K=4, DATAPACKING=POINT
 1.250000E-01  1.250000E-01  1.250000E-01  1.930696E+05  2.001542E+05  8.159769E-01  1.840231E-01  9.999772E+02  2.474674E+00  3.096720E-05  9.999690E-01  9.946577E-01  5.342267E-03  8.000000E+00  6.037993E-01  6.059769E+00    3  4.699864E+00  1.000295E-15  9.999772E-26  3.131767E-02  4.920031E-09  8.003255E+03  1.000000E-15  8.763698E-04  9.999997E-16  1.000037E-15  1.000000E-15  1.000000E-15  1.000000E-15  1.000000E-15  1.000295E-15  9.999772E-26  2.967992E-05  3.597489E-09  8.003225E+03  1.000000E-15  8.763698E-04  9.999997E-16  1.000037E-15  1.000000E-15  1.000000E-15  1.000000E-15  1.000000E-15  1.000000E+00  1.310084E-03  2.961592E-05  7.199485E-01  5.000000E-01  4.332712E-11 -7.496762E-06  0.000000E+00    1 
 3.750000E-01  1.250000E-01  1.250000E-01  1.930696E+05  2.001542E+05  8.159769E-01  1.840231E-01  9.999772E+02  2.474674E+00  3.096720E-05  9.999690E-01  9.946577E-01  5.342267E-03  8.000000E+00  6.037993E-01  6.059769E+00    3  4.699864E+00  1.000295E-15  9.999772E-26  3.131767E-02  4.920031E-09  8.003255E+03  1.000000E-15  8.763698E-04  9.999997E-16  1.000037E-15  1.000000E-15  1.000000E-15  1.000000E-15  1.000000E-15  1.000295E-15  9.999772E-26  2.967992E-05  3.597489E-09  8.003225E+03  1.000000E-15  8.763698E-04  9.999997E-16  1.000037E-15  1.000000E-15  1.000000E-15  1.000000E-15  1.000000E-15  1.000000E+00  1.310084E-03  2.961592E-05  7.199485E-01  5.000000E-01  4.332712E-11 -7.496762E-06  0.000000E+00    1 
 6.250000E-01  1.250000E-01  1.250000E-01  1.930696E+05  2.001542E+05  8.159769E-01  1.840231E-01  9.999772E+02  2.474674E+00  3.096720E-05  9.999690E-01  9.946577E-01  5.342267E-03  8.000000E+00  6.037993E-01  6.059769E+00    3  4.699864E+00  1.000295E-15  9.999772E-26  3.131767E-02  4.920031E-09  8.003255E+03  1.000000E-15  8.763698E-04  9.999997E-16  1.000037E-15  1.000000E-15  1.000000E-15  1.000000E-15  1.000000E-15  1.000295E-15  9.999772E-26  2.967992E-05  3.597489E-09  8.003225E+03  1.000000E-15  8.763698E-04  9.999997E-16  1.000037E-15  1.000000E-15  1.000000E-15  1.000000E-15  1.000000E-15  1.000000E+00  1.310084E-03  2.961592E-05  7.199485E-01  5.000000E-01  4.332712E-11 -7.496762E-06  0.000000E+00    1 
 8.750000E-01  1.250000E-01  1.250000E-01  1.930696E+05  2.001542E+05  8.159769E-01  1.840231E-01  9.999772E+02  2.474674E+00  3.096720E-05  9.999690E-01  9.946577E-01  5.342267E-03  8.000000E+00  6.037993E-01  6.059769E+00    3  4.699864E+00  1.000295E-15  9.999772E-26  3.131767E-02  4.920031E-09  8.003255E+03  1.000000E-15  8.763698E-04  9.999997E-16  1.000037E-15  1.000000E-15  1.000000E-15  1.000000E-15  1.000000E-15  1.000295E-15  9.999772E-26  2.967992E-05  3.597489E-09  8.003225E+03  1.000000E-15  8.763698E-04  9.999997E-16  1.000037E-15  1.000000E-15  1.000000E-15  1.000000E-15  1.000000E-15  1.000000E+00  1.310084E-03  2.961592E-05  7.199485E-01  5.000000E-01  4.332712E-11 -7.496762E-06  0.000000E+00    1 
 1.250000E-01  3.750000E-01  1.250000E-01  1.930696E+05  2.001542E+05  8.159769E-01  1.840231E-01  9.999772E+02  2.474674E+00  3.096720E-05  9.999690E-01  9.946577E-01  5.342267E-03  8.000000E+00  6.037993E-01  6.059769E+00    3  4.699864E+00  1.000295E-15  9.999772E-26  3.131767E-02  4.920031E-09  8.003255E+03  1.000000E-15  8.763698E-04  9.999997E-16  1.000037E-15  1.000000E-15  1.000000E-15  1.000000E-15  1.000000E-15  1.000295E-15  9.999772E-26  2.967992E-05  3.597489E-09  8.003225E+03  1.000000E-15  8.763698E-04  9.999997E-16  1.000037E-15  1.000000E-15  1.000000E-15  1.000000E-15  1.000000E-15  1.000000E+00  1.310084E-03  2.961592E-05  7.199485E-01  5.000000E-01  4.332712E-11 -7.496762E-06  0.000000E+00    1 
 3.750000E-01  3.750000E-01  1.250000E-01  1.930696E+05  2.001542E+05  8.159769E-01  1.840231E-01  9.999772E+02  2.474674E+00  3.096720E-05  9.999690E-01  9.946577E-01  5.342267E-03  8.000000E+00  6.037993E-01  6.059769E+00    3  4.699864E+00  1.000295E-15  9.999772E-26  3.131767E-02  4.920031E-09  8.003255E+03  1.000000E-15  8.763698E-04  9.999997E-16  1.000037E-15  1.000000E-15  1.000000E-15  1.000000E-15  1.000000E-15  1.000295E-15  9.999772E-26  2.967992E-05  3.597489E-09  8.003225E+03  1.000000E-15  8.763698E-04  9.999997E-16  1.000037E-15  1.000000E-15  1.000000E-15  1.000000E-15  1.000000E-15  1.000000E+00  1.310084E-03  2.961592E-05  7.199485E-01  5.000000E-01  4.332712E-11 -7.496762E-06  0.000000E+00    1 
 6.250000E-01  3.750000E-01  1.250000E-01  1.930696E+05  2.001542E+05  8.159769E-01  1.840231E-01  9.999772E+02  2.474674E+00  3.096720E-05  9.999690E-01  9.946577E-01  5.342267E-03  8.000000E+00  6.037993E-01  6.059769E+00    3  4.699864E+00  1.000295E-15  9.999772E-26  3.131767E-02  4.920031E-09  8.003255E+03  1.000000E-15  8.763698E-04  9.999997E-16  1.000037E-15  1.000000E-15  1.000000E-15  1.000000E-15  1.000000E-15  1.000295E-15  9.999772E-26  2.967992E-05  3.597489E-09  8.003225E+03  1.000000E-15  8.763698E-04  9.999997E-16  1.000037E-15  1.000000E-15  1.000000E-15  1.000000E-15  1.000000E-15  1.000000E+00  1.310084E-03  2.961592E-05  7.199485E-01  5.000000E-01  4.332712E-11 -7.496762E-06  0.000000E+00    1 
 8.750000E-01  3.750000E-01  1.250000E-01  1.930696E+05  2.001542E+05  8.159769E-01  1.840231E-01  9.999772E+02  2.474674E+00  3.096720E-05  9.999690E-01  9.946577E-01  5.342267E-03  8.000000E+00  6.037993E-01  6.059769E+00    3  4.699864E+00  1.000295E-15  9.999772E-26  3.131767E-02  4.920031E-09  8.003255E+03  1.000000E-15  8.763698E-04  9.999997E-16  1.000037E-15  1.000000E-15  1.000000E-15  1.000000E-15  1.000000E-15  1.000295E-15  9.999772E-26  2.967992E-05  3.597489E-09  8.003225E+03  1.000000E-15  8.763698E-04  9.999997E-16  1.000037E-15  1.000000E-15  1.000000E-15  1.000000E-15  1.000000E-15  1.000000E+00  1.310084E-03  2.961592E-05  7.199485E-01  5.000000E-01  4.332712E-11 -7.496762E-06  0.000000E+00    1 
 1.250000E-01  6.250000E-01  1.250000E-01  1.930696E+05  2.001542E+05  8.159769E-01  1.840231E-01  9.999772E+02  2.474674E+00  3.096720E-05  9.999690E-01  9.946577E-01  5.342267E-03  8.000000E+00  6.037993E-01  6.059769E+00    3  4.699864E+00  1.000295E-15  9.999772E-26  3.131767E-02  4.920031E-09  8.003255E+03  1.000000E-15  8.763698E-04  9.999997E-16  1.000037E-15  1.000000E-15  1.000000E-15  1.000000E-15  1.000000E-15  1.000295E-15  9.999772E-26  2.967992E-05  3.597489E-09  8.003225E+03  1.000000E-15  8.763698E-04  9.999997E-16  1.000037E-15  1.000000E-15  1.000000E-15  1.000000E-15  1.000000E-15  1.000000E+00  1.310084E-03  2.961592E-05  7.199485E-01  5.000000E-01  4.332712E-11 -7.496762E-06  0.000000E+00    1 
 3.750000E-01  6.250000E-01  1.250000E-01  1.930696E+05  2.001542E+05  8.159769E-01  1.840231E-01  9.999772E+02  2.474674E+00  3.096720E-05  9.999690E-01  9.946577E-01  5.342267E-03  8.000000E+00  6.037993E-01  6.059769E+00    3  4.699864E+00  1.000295E-15  9.999772E-26  3.131767E-02  4.920031E-09  8.003255E+03  1.000000E-15  8.763698E-04  9.999997E-16  1.000037E-15  1.000000E-15  1.000000E-15  1.000000E-15  1.000000E-15  1.000295E-15  9.999772E-26  2.967992E-05  3.597489E-09  8.003225E+03  1.000000E-15  8.763698E-04  9.999997E-16  1.000037E-15  1.000000E-15  1.000000E-15  1.000000E-15  1.000000E-15  1.000000E+00  1.310084E-03  2.961592E-05  7.199485E-01  5.000000E-01  4.332712E-11 -7.496762E-06  0.000000E+00    1 
 6.250000E-01  6.250000E-01  1.250000E-01  1.930696E+05  2.001542E+05  8.159769E-01  1.840231E-01  9.999772E+02  2.474674E+00  3.096720E-05  9.999690E-01  9.946577E-01  5.342267E-03  8.000000E+00  6.037993E-01  6.059769E+00    3  4.699864E+00  1.000295E-15  9.999772E-26  3.131767E-02  4.920031E-09  8.003255E+03  1.000000E-15  8.763698E-04  9.999997E-16  1.000037E-15  1.000000E-15  1.000000E-15  1.000000E-15  1.000000E-15  1.000295E-15  9.999772E-26  2.967992E-05  3.597489E-09  8.003225E+03  1.000000E-15  8.763698E-04  9.999997E-16  1.000037E-15  1.000000E-15  1.000000E-15  1.000000E-15  1.000000E-15  1.000000E+00  1.310084E-03  2.961592E-05  7.199485E-01  5.000000E-01  4.332712E-11 -7.496762E-06  0.000000E+00    1 
 8.750000E-01  6.250000E-01  1.250000E-01  1.930696E+05  2.001542E+05  8.159769E-01  1.840231E-01  9.999772E+02  2.474674E+00  3.096720E-05  9.999690E-01  9.946577E-01  5.342267E-03  8.000000E+00  6.037993E-01  6.059769E+00    3  4.699864E+00  1.000295E-15  9.999772E-26  3.131767E-02  4.920031E-09  8.003255E+03  1.000000E-15  8.763698E-04  9.999997E-16  1.000037E-15  1.000000E-15  1.000000E-15  1.000000E-15  1.000000E-15  1.000295E-15  9.999772E-26  2.967992E-05  3.597489E-09  8.003225E+03  1.000000E-15  8.763698E-04  9.999997E-16  1.000037E-15  1.000000E-15  1.000000E-15  1.000000E-15  1.000000E-15  1.000000E+00  1.310084E-03  2.961592E-05  7.199485E-01  5.000000E-01  4.332712E-11 -7.496762E-06  0.000000E+00    1 
 1.250000E-01  8.750000E-01  1.250000E-01  1.930696E+05  2.001542E+05  8.159769E-01  1.840231E-01  9.999772E+02  2.474674E+00  3.096720E-05  9.999690E-01  9.946577E-01  5.342267E-03  8.000000E+00  6.037993E-01  6.059769E+00    3  4.699864E+00  1.000295E-15  9.999772E-26  3.131767E-02  4.920031E-09  8.003255E+03  1.000000E-15  8.763698E-04  9.999997E-16  1.000037E-15  1.000000E-15  1.000000E-15  1.000000E-15  1.000000E-15  1.000295E-15  9.999772E-26  2.967992E-05  3.597489E-09  8.003225E+03  1.000000E-15  8.763698E-04  9.999997E-16  1.000037E-15  1.000000E-15  1.000000E-15  1.000000E-15  1.000000E-15  1.000000E+00  1.310084E-03  2.961592E-05  7.199485E-01  5.000000E-01  4.332712E-11 -7.496762E-06  0.000000E+00    1 
 3.750000E-01  8.750000E-01  1.250000E-01  1.930696E+05  2.001542E+05  8.159769E-01  1.840231E-01  9.999772E+02  2.474674E+00  3.096720E-05  9.999690E-01  9.946577E-01  5.342267E-03  8.000000E+00  6.037993E-01  6.059769E+00    3  4.699864E+00  1.000295E-15  9.999772E-26  3.131767E-02  4.920031E-09  8.003255E+03  1.000000E-15  8.763698E-04  9.999997E-16  1.000037E-15  1.000000E-15  1.000000E-15  1.000000E-15  1.000000E-15  1.000295E-15  9.999772E-26  2.967992E-05  3.597489E-09  8.003225E+03  1.000000E-15  8.763698E-04  9.999997E-16  1.000037E-15  1.000000E-15  1.000000E-15  1.000000E-15  1.000000E-15  1.000000E+00  1.310084E-03  2.961592E-05  7.199485E-01  5.000000E-01  4.332712E-11 -7.496762E-06  0.000000E+00    1 
 6.250000E-01  8.750000E-01  1.250000E-01  1.930696E+05  2.001542E+05  8.159769E-01  1.840231E-01  9.999772E+02  2.474674E+00  3.096720E-05  9.999690E-01  9.946577E-01  5.342267E-03  8.000000E+00  6.037993E-01  6.059769E+00    3  4.699864E+00  1.000295E-15  9.999772E-26  3.131767E-02  4.920031E-09  8.003255E+03  1.000000E-15  8.763698E-04  9.999997E-16  1.000037E-15  1.000000E-15  1.000000E-15  1.000000E-15  1.000000E-15  1.000295E-15  9.999772E-26  2.967992E-05  3.597489E-09  8.003225E+03  1.000000E-15  8.763698E-04  9.999997E-16  1.000037E-15  1.000000E-15  1.000000E-15  1.000000E-15  1.000000E-15  1.000000E+00  1.310084E-03  2.961592E-05  7.199485E-01  5.000000E-01  4.332712E-11 -7.496762E-06  0.000000E+00    1 
 8.750000E-01  8.750000E-01  1.250000E-01  1.930696E+05  2.001542E+05  8.159769E-01  1.840231E-01  9.999772E+02  2.474674E+00  3.096720E-05  9.999690E-01  9.946577E-01  5.342267E-03  8.000000E+00  6.037993E-01  6.059769E+00    3  4.699864E+00  1.000295E-15  9.999772E-26  3.131767E-02  4.920031E-09  8.003255E+03  1.000000E-15  8.763698E-04  9.999997E-16  1.000037E-15  1.000000E-15  1.000000E-15  1.000000E-15  1.000000E-15  1.000295E-15  9.999772E-26  2.967992E-05  3.597489E-09  8.003225E+03  1.000000E-15  8.763698E-04  9.999997E-16  1.000037E-15  1.000000E-15  1.000000E-15  1.000000E-15  1.000000E-15  1.000000E+00  1.310084E-03  2.961592E-05  7.199485E-01  5.000000E-01  4.332712E-11 -7.496762E-06  0.000000E+00    1 
 1.250000E-01  1.250000E-01  3.750000E-01  1.923797E+05  2.001275E+05  7.904986E-01  2.095014E-01  9.999772E+02  2.474344E+00  3.096306E-05  9.999690E-01  9.946570E-01  5.342978E-03  8.000000E+00  6.037993E-01  6.059796E+00    3  4.699348E+00  1.000257E-15  9.999772E-26  3.131767E-02  4.937419E-09  8.003255E+03  1.000000E-15  8.763767E-04  9.999998E-16  1.000032E-15  1.000000E-15  1.000000E-15  1.000000E-15  1.000000E-15  1.000257E-15  9.999772E-26  2.971217E-05  3.610319E-09  8.003225E+03  1.000000E-15  8.763767E-04  9.999998E-16  1.000032E-15  1.000000E-15  1.000000E-15  1.000000E-15  1.000000E-15  1.000000E+00  1.313064E-03  2.961680E-05  7.199485E-01  5.000000E-01  1.276075E-10 -7.502695E-06  0.000000E+00    1 
 3.750000E-01  1.250000E-01  3.750000E-01  1.923797E+05  2.001275E+05  7.904986E-01  2.095014E-01  9.999772E+02  2.474344E+00  3.096306E-05  9.999690E-01  9.946570E-01  5.342978E-03  8.000000E+00  6.037993E-01  6.059796E+00    3  4.699348E+00  1.000257E-15  9.999772E-26  3.131767E-02  4.937419E-09  8.003255E+03  1.000000E-15  8.763767E-04  9.999998E-16  1.000032E-15  1.000000E-15  1.000000E-15  1.000000E-15  1.000000E-15  1.000257E-15  9.999772E-26  2.971217E-05  3.610319E-09  8.003225E+03  1.000000E-15  8.763767E-04  9.999998E-16  1.000032E-15  1.000000E-15  1.000000E-15  1.000000E-15  1.000000E-15  1.000000E+00  1.313064E-03  2.961680E-05  7.199485E-01  5.000000E-01  1.276075E-10 -7.502695E-06  0.000000E+00    1 
 6.250000E-01  1.250000E-01  3.750000E-01  1.923797E+05  2.001275E+05  7.904986E-01  2.095014E-01  9.999772E+02  2.474344E+00  3.096306E-05  9.999690E-01  9.946570E-01  5.342978E-03  8.000000E+00  6.037993E-01  6.059796E+00    3  4.699348E+00  1.000257E-15  9.999772E-26  3.131767E-02  4.937419E-09  8.003255E+03  1.000000E-15  8.763767E-04  9.999998E-16  1.000032E-15  1.000000E-15  1.000000E-15  1.000000E-15  1.000000E-15  1.000257E-15  9.999772E-26  2.971217E-05  3.610319E-09  8.003225E+03  1.000000E-15  8.763767E-04  9.999998E-16  1.000032E-15  1.000000E-15  1.000000E-15  1.000000E-15  1.000000E-15  1.000000E+00  1.313064E-03  2.961680E-05  7.199485E-01  5.000000E-01  1.276075E-10 -7.502695E-06  0.000000E+00    1 
 8.750000E-01  1.250000E-01  3.750000E-01  1.923797E+05  2.001275E+05  7.904986E-01  2.095014E-01  9.999772E+02  2.474344E+00  3.096306E-05  9.999690E-01  9.946570E-01  5.342978E-03  8.000000E+00  6.037993E-01  6.059796E+00    3  4.699348E+00  1.000257E-15  9.999772E-26  3.131767E-02  4.937419E-09  8.003255E+03  1.000000E-15  8.763767E-04  9.999998E-16  1.000032E-15  1.000000E-15  1.000000E-15  1.000000E-15  1.000000E-15  1.000257E-15  9.999772E-26  2.971217E-05  3.610319E-09  8.003225E+03  1.000000E-15  8.763767E-04  9.999998E-16  1.000032E-15  1.000000E-15  1.000000E-15  1.000000E-15  1.000000E-15  1.000000E+00  1.313064E-03  2.961680E-05  7.199485E-01  5.000000E-01  1.276075E-10 -7.502695E-06  0.000000E+00    1 
 1.250000E-01  3.750000E-01  3.750000E-01  1.923797E+05  2.001275E+05  7.904986E-01  2.095014E-01  9.999772E+02  2.474344E+00  3.096306E-05  9.999690E-01  9.946570E-01  5.342978E-03  8.000000E+00  6.037993E-01  6.059796E+00    3  4.699348E+00  1.000257E-15  9.999772E-26  3.131767E-02  4.937419E-09  8.003255E+03  1.000000E-15  8.763767E-04  9.999998E-16  1.000032E-15  1.000000E-15  1.000000E-15  1.000000E-15  1.000000E-15  1.000257E-15  9.999772E-26  2.971217E-05  3.610319E-09  8.003225E+03  1.000000E-15  8.763767E-04  9.999998E-16  1.000032E-15  1.000000E-15  1.000000E-15  1.000000E-15  1.000000E-15  1.000000E+00  1.313064E-03  2.961680E-05  7.199485E-01  5.000000E-01  1.276075E-10 -7.502695E-06  0.000000E+00    1 
 3.750000E-01  3.750000E-01  3.750000E-01  1.923797E+05  2.001275E+05  7.904986E-01  2.095014E-01  9.999772E+02  2.474344E+00  3.096306E-05  9.999690E-01  9.946570E-01  5.342978E-03  8.000000E+00  6.037993E-01  6.059796E+00    3  4.699348E+00  1.000257E-15  9.999772E-26  3.131767E-02  4.937419E-09  8.003255E+03  1.000000E-15  8.763767E-04  9.999998E-16  1.000032E-15  1.000000E-15  1.000000E-15  1.000000E-15  1.000000E-15  1.000257E-15  9.999772E-26  2.971217E-05  3.610319E-09  8.003225E+03  1.000000E-15  8.763767E-04  9.999998E-16  1.000032E-15  1.000000E-15  1.000000E-15  1.000000E-15  1.000000E-15  1.000000E+00  1.313064E-03  2.961680E-05  7.199485E-01  5.000000E-01  1.276075E-10 -7.502695E-06  0.000000E+00    1 
 6.250000E-01  3.750000E-01  3.750000E-01  1.923797E+05  2.001275E+05  7.904986E-01  2.095014E-01  9.999772E+02  2.474344E+00  3.096306E-05  9.999690E-01  9.946570E-01  5.342978E-03  8.000000E+00  6.037993E-01  6.059796E+00    3  4.699348E+00  1.000257E-15  9.999772E-26  3.131767E-02  4.937419E-09  8.003255E+03  1.000000E-15  8.763767E-04  9.999998E-16  1.000032E-15  1.000000E-15  1.000000E-15  1.000000E-15  1.000000E-15  1.000257E-15  9.999772E-26  2.971217E-05  3.610319E-09  8.003225E+03  1.000000E-15  8.763767E-04  9.999998E-16  1.000032E-15  1.000000E-15  1.000000E-15  1.000000E-15  1.000000E-15  1.000000E+00  1.313064E-03  2.961680E-05  7.199485E-01  5.000000E-01  1.276075E-10 -7.502695E-06  0.000000E+00    1 
 8.750000E-01  3.750000E-01  3.750000E-01  1.923797E+05  2.001275E+05  7.904986E-01  2.095014E-01  9.999772E+02  2.474344E+00  3.096306E-05  9.999690E-01  9.946570E-01  5.342978E-03  8.000000E+00  6.037993E-01  6.059796E+00    3  4.699348E+00  1.000257E-15  9.999772E-26  3.131767E-02  4.937419E-09  8.003255E+03  1.000000E-15  8.763767E-04  9.999998E-16  1.000032E-15  1.000000E-15  1.000000E-15  1.000000E-15  1.000000E-15  1.000257E-15  9.999772E-26  2.971217E-05  3.610319E-09  8.003225E+03  1.000000E-15  8.763767E-04  9.999998E-16  1.000032E-15  1.000000E-15  1.000000E-15  1.000000E-15  1.000000E-15  1.000000E+00  1.313064E-03  2.961680E-05  7.199485E-01  5.000000E-01  1.276075E-10 -7.502695E-06  0.000000E+00    1 
 1.250000E-01  6.250000E-01  3.750000E-01  1.923797E+05  2.001275E+05  7.904986E-01  2.095014E-01  9.999772E+02  2.474344E+00  3.096306E-05  9.999690E-01  9.946570E-01  5.342978E-03  8.000000E+00  6.037993E-01  6.059796E+00    3  4.699348E+00  1.000257E-15  9.999772E-26  3.131767E-02  4.937419E-09  8.003255E+03  1.000000E-15  8.763767E-04  9.999998E-16  1.000032E-15  1.000000E-15  1.000000E-15  1.000000E-15  1.000000E-15  1.000257E-15  9.999772E-26  2.971217E-05  3.610319E-09  8.003225E+03  1.000000E-15  8.763767E-04  9.999998E-16  1.000032E-15  1.000000E-15  1.000000E-15  1.000000E-15  1.000000E-15  1.000000E+00  1.313064E-03  2.961680E-05  7.199485E-01  5.000000E-01  1.276075E-10 -7.502695E-06  0.000000E+00    1 
 3.750000E-01  6.250000E-01  3.750000E-01  1.923797E+05  2.001275E+05  7.904986E-01  2.095014E-01  9.999772E+02  2.474344E+00  3.096306E-05  9.999690E-01  9.946570E-01  5.342978E-03  8.000000E+00  6.037993E-01  6.059796E+00    3  4.699348E+00  1.000257E-15  9.999772E-26  3.131767E-02  4.937419E-09  8.003255E+03  1.000000E-15  8.763767E-04  9.999998E-16  1.000032E-15  1.000000E-15  1.000000E-15  1.000000E-15  1.000000E-15  1.000257E-15  9.999772E-26  2.971217E-05  3.610319E-09  8.003225E+03  1.000000E-15  8.763767E-04  9.999998E-16  1.000032E-15  1.000000E-15  1.000000E-15  1.000000E-15  1.000000E-15  1.000000E+00  1.313064E-03  2.961680E-05  7.199485E-01  5.000000E-01  1.276075E-10 -7.502695E-06  0.000000E+00    1 
 6.250000E-01  6.250000E-01  3.750000E-01  1.923797E+05  2.001275E+05  7.904986E-01  2.095014E-01  9.999772E+02  2.474344E+00  3.096306E-05  9.999690E-01  9.946570E-01  5.342978E-03  8.000000E+00  6.037993E-01  6.059796E+00    3  4.699348E+00  1.000257E-15  9.999772E-26  3.131767E-02  4.937419E-09  8.003255E+03  1.000000E-15  8.763767E-04  9.999998E-16  1.000032E-15  1.000000E-15  1.000000E-15  1.000000E-15  1.000000E-15  1.000257E-15  9.999772E-26  2.971217E-05  3.610319E-09  8.003225E+03  1.000000E-15  8.763767E-04  9.999998E-16  1.000032E-15  1.000000E-15  1.000000E-15  1.000000E-15  1.000000E-15  1.000000E+00  1.313064E-03  2.961680E-05  7.199485E-01  5.000000E-01  1.276075E-10 -7.502695E-06  0.000000E+00    1 
 8.750000E-01  6.250000E-01  3.750000E-01  1.923797E+05  2.001275E+05  7.904986E-01  2.095014E-01  9.999772E+02  2.474344E+00  3.096306E-05  9.999690E-01  9.946570E-01  5.342978E-03  8.000000E+00  6.037993E-01  6.059796E+00    3  4.699348E+00  1.000257E-15  9.999772E-26  3.131767E-02  4.937419E-09  8.003255E+03  1.000000E-15  8.763767E-04  9.999998E-16  1.000032E-15  1.000000E-15  1.000000E-15  1.000000E-15  1.000000E-15  1.000257E-15  9.999772E-26  2.971217E-05  3.610319E-09  8.003225E+03  1.000000E-15  8.763767E-04  9.999998E-16  1.000032E-15  1.000000E-15  1.000000E-15  1.000000E-15  1.000000E-15  1.000000E+00  1.313064E-03  2.961680E-05  7.199485E-01  5.000000E-01  1.276075E-10 -7.502695E-06  0.000000E+00    1 
 1.250000E-01  8.750000E-01  3.750000E-01  1.923797E+05  2.001275E+05  7.904986E-01  2.095014E-01  9.999772E+02  2.474344E+00  3.096306E-05  9.999690E-01  9.946570E-01  5.342978E-03  8.000000E+00  6.037993E-01  6.059796E+00    3  4.699348E+00  1.000257E-15  9.999772E-26  3.131767E-02  4.937419E-09  8.003255E+03  1.000000E-15  8.763767E-04  9.999998E-16  1.000032E-15  1.000000E-15  1.000000E-15  1.000000E-15  1.000000E-15  1.000257E-15  9.999772E-26  2.971217E-05  3.610319E-09  8.003225E+03  1.000000E-15  8.763767E-04  9.999998E-16  1.000032E-15  1.000000E-15  1.000000E-15  1.000000E-15  1.000000E-15  1.000000E+00  1.313064E-03  2.961680E-05  7.199485E-01  5.000000E-01  1.276075E-10 -7.502695E-06  0.000000E+00    1 
 3.750000E-01  8.750000E-01  3.750000E-01  1.923797E+05  2.001275E+05  7.904986E-01  2.095014E-01  9.999772E+02  2.474344E+00  3.096306E-05  9.999690E-01  9.946570E-01  5.342978E-03  8.000000E+00  6.037993E-01  6.059796E+00    3  4.699348E+00  1.000257E-15  9.999772E-26  3.131767E-02  4.937419E-09  8.003255E+03  1.000000E-15  8.763767E-04  9.999998E-16  1.000032E-15  1.000000E-15  1.000000E-15  1.000000E-15  1.000000E-15  1.000257E-15  9.999772E-26  2.971217E-05  3.610319E-09  8.003225E+03  1.000000E-15  8.763767E-04  9.999998E-16  1.000032E-15  1.000000E-15  1.000000E-15  1.000000E-15  1.000000E-15  1.000000E+00  1.313064E-03  2.961680E-05  7.199485E-01  5.000000E-01  1.276075E-10 -7.502695E-06  0.000000E+00    1 
 6.250000E-01  8.750000E-01  3.750000E-01  1.923797E+05  2.001275E+05  7.904986E-01  2.095014E-01  9.999772E+02  2.474344E+00  3.096306E-05  9.999690E-01  9.946570E-01  5.342978E-03  8.000000E+00  6.037993E-01  6.059796E+00    3  4.699348E+00  1.000257E-15  9.999772E-26  3.131767E-02  4.937419E-09  8.003255E+03  1.000000E-15  8.763767E-04  9.999998E-16  1.000032E-15  1.000000E-15  1.000000E-15  1.000000E-15  1.000000E-15  1.000257E-15  9.999772E-26  2.971217E-05  3.610319E-09  8.003225E+03  1.000000E-15  8.763767E-04  9.999998E-16  1.000032E-15  1.000000E-15  1.000000E-15  1.000000E-15  1.000000E-15  1.000000E+00  1.313064E-03  2.961680E-05  7.199485E-01  5.000000E-01  1.276075E-10 -7.502695E-06  0.000000E+00    1 
 8.750000E-01  8.750000E-01  3.750000E-01  1.923797E+05  2.001275E+05  7.904986E-01  2.095014E-01  9.999772E+02  2.474344E+00  3.096306E-05  9.999690E-01  9.946570E-01  5.342978E-03  8.000000E+00  6.037993E-01  6.059796E+00    3  4.699348E+00  1.000257E-15  9.999772E-26  3.131767E-02  4.937419E-09  8.003255E+03  1.000000E-15  8.763767E-04  9.999998E-16  1.000032E-15  1.000000E-15  1.000000E-15  1.000000E-15  1.000000E-15  1.000257E-15  9.999772E-26  2.971217E-05  3.610319E-09  8.003225E+03  1.000000E-15  8.763767E-04  9.999998E-16  1.000032E-15  1.000000E-15  1.000000E-15  1.000000E-15  1.000000E-15  1.000000E+00  1.313064E-03  2.961680E-05  7.199485E-01  5.000000E-01  1.276075E-10 -7.502695E-06  0.000000E+00    1 
 1.250000E-01  1.250000E-01  6.250000E-01  1.927683E+05  2.000901E+05  8.068467E-01  1.931533E-01  9.999772E+02  2.473880E+00  3.095724E-05  9.999690E-01  9.946560E-01  5.343977E-03  8.000000E+00  6.037994E-01  6.059833E+00    3  4.698315E+00  1.000181E-15  9.999772E-26  3.131767E-02  5.006374E-09  8.003255E+03  1.000000E-15  8.763903E-04  9.999998E-16  1.000023E-15  1.000000E-15  1.000000E-15  1.000000E-15  1.000000E-15  1.000181E-15  9.999772E-26  2.977691E-05  3.660979E-09  8.003225E+03  1.000000E-15  8.763903E-04  9.999998E-16  1.000023E-15  1.000000E-15  1.000000E-15  1.000000E-15  1.000000E-15  1.000000E+00  1.319060E-03  3.551141E-05  7.199484E-01  5.000000E-01  6.822312E-07 -7.514548E-06  0.000000E+00    1 
 3.750000E-01  1.250000E-01  6.250000E-01  1.927683E+05  2.000901E+05  8.068467E-01  1.931533E-01  9.999772E+02  2.473880E+00  3.095724E-05  9.999690E-01  9.946560E-01  5.343977E-03  8.000000E+00  6.037994E-01  6.059833E+00    3  4.698315E+00  1.000181E-15  9.999772E-26  3.131767E-02  5.006374E-09  8.003255E+03  1.000000E-15  8.763903E-04  9.999998E-16  1.000023E-15  1.000000E-15  1.000000E-15  1.000000E-15  1.000000E-15  1.000181E-15  9.999772E-26  2.977691E-05  3.660979E-09  8.003225E+03  1.000000E-15  8.763903E-04  9.999998E-16  1.000023E-15  1.000000E-15  1.000000E-15  1.000000E-15  1.000000E-15  1.000000E+00  1.319060E-03  3.551141E-05  7.199484E-01  5.000000E-01  6.822312E-07 -7.514548E-06  0.000000E+00    1 
 6.250000E-01  1.250000E-01  6.250000E-01  1.927683E+05  2.000901E+05  8.068467E-01  1.931533E-01  9.999772E+02  2.473880E+00  3.095724E-05  9.999690E-01  9.946560E-01  5.343977E-03  8.000000E+00  6.037994E-01  6.059833E+00    3  4.698315E+00  1.000181E-15  9.999772E-26  3.131767E-02  5.006374E-09  8.003255E+03  1.000000E-15  8.763903E-04  9.999998E-16  1.000023E-15  1.000000E-15  1.000000E-15  1.000000E-15  1.000000E-15  1.000181E-15  9.999772E-26  2.977691E-05  3.660979E-09  8.003225E+03  1.000000E-15  8.763903E-04  9.999998E-16  1.000023E-15  1.000000E-15  1.000000E-15  1.000000E-15  1.000000E-15  1.000000E+00  1.319060E-03  3.551141E-05  7.199484E-01  5.000000E-01  6.822312E-07 -7.514548E-06  0.000000E+00    1 
 8.750000E-01  1.250000E-01  6.250000E-01  1.927683E+05  2.000901E+05  8.068467E-01  1.931533E-01  9.999772E+02  2.473880E+00  3.095724E-05  9.999690E-01  9.946560E-01  5.343977E-03  8.000000E+00  6.037994E-01  6.059833E+00    3  4.698315E+00  1.000181E-15  9.999772E-26  3.131767E-02  5.006374E-09  8.003255E+03  1.000000E-15  8.763903E-04  9.999998E-16  1.000023E-15  1.000000E-15  1.000000E-15  1.000000E-15  1.000000E-15  1.000181E-15  9.999772E-26  2.977691E-05  3.660979E-09  8.003225E+03  1.000000E-15  8.763903E-04  9.999998E-16  1.000023E-15  1.000000E-15  1.000000E-15  1.000000E-15  1.000000E-15  1.000000E+00  1.319060E-03  3.551141E-05  7.199484E-01  5.000000E-01  6.822312E-07 -7.514548E-06  0.000000E+00    1 
 1.250000E-01  3.750000E-01  6.250000E-01  1.927683E+05  2.000901E+05  8.068467E-01  1.931533E-01  9.999772E+02  2.473880E+00  3.095724E-05  9.999690E-01  9.946560E-01  5.343977E-03  8.000000E+00  6.037994E-01  6.059833E+00    3  4.698315E+00  1.000181E-15  9.999772E-26  3.131767E-02  5.006374E-09  8.003255E+03  1.000000E-15  8.763903E-04  9.999998E-16  1.000023E-15  1.000000E-15  1.000000E-15  1.000000E-15  1.000000E-15  1.000181E-15  9.999772E-26  2.977691E-05  3.660979E-09  8.003225E+03  1.000000E-15  8.763903E-04  9.999998E-16  1.000023E-15  1.000000E-15  1.000000E-15  1.000000E-15  1.000000E-15  1.000000E+00  1.319060E-03  3.551141E-05  7.199484E-01  5.000000E-01  6.822312E-07 -7.514548E-06  0.000000E+00    1 
 3.750000E-01  3.750000E-01  6.250000E-01  1.927683E+05  2.000901E+05  8.068467E-01  1.931533E-01  9.999772E+02  2.473880E+00  3.095724E-05  9.999690E-01  9.946560E-01  5.343977E-03  8.000000E+00  6.037994E-01  6.059833E+00    3  4.698315E+00  1.000181E-15  9.999772E-26  3.131767E-02  5.006374E-09  8.003255E+03  1.000000E-15  8.763903E-04  9.999998E-16  1.000023E-15  1.000000E-15  1.000000E-15  1.000000E-15  1.000000E-15  1.000181E-15  9.999772E-26  2.977691E-05  3.660979E-09  8.003225E+03  1.000000E-15  8.763903E-04  9.999998E-16  1.000023E-15  1.000000E-15  1.000000E-15  1.000000E-15  1.000000E-15  1.000000E+00  1.319060E-03  3.551141E-05  7.199484E-01  5.000000E-01  6.822312E-07 -7.514548E-06  0.000000E+00    1 
 6.250000E-01  3.750000E-01  6.250000E-01  1.927683E+05  2.000901E+05  8.068467E-01  1.931533E-01  9.999772E+02  2.473880E+00  3.095724E-05  9.999690E-01  9.946560E-01  5.343977E-03  8.000000E+00  6.037994E-01  6.059833E+00    3  4.698315E+00  1.000181E-15  9.999772E-26  3.131767E-02  5.006374E-09  8.003255E+03  1.000000E-15  8.763903E-04  9.999998E-16  1.000023E-15  1.000000E-15  1.000000E-15  1.000000E-15  1.000000E-15  1.000181E-15  9.999772E-26  2.977691E-05  3.660979E-09  8.003225E+03  1.000000E-15  8.763903E-04  9.999998E-16  1.000023E-15  1.000000E-15  1.000000E-15  1.000000E-15  1.000000E-15  1.000000E+00  1.319060E-03  3.551141E-05  7.199484E-01  5.000000E-01  6.822312E-07 -7.514548E-06  0.000000E+00    1 