TITLE = "  0.00000E+00 [d]"
VARIABLES="X [m]","Y [m]","Z [m]","Liquid Pressure [Pa]","Gas Pressure [Pa]","Liquid Saturation","Gas Saturation","Liquid Density [kg/m^3]","Gas Density [kg/m^3]","X_g^l","X_l^l","X_g^g","X_l^g","Temperature [C]","Liquid Energy [MJ/kmol]","Gas Energy [MJ/kmol]","Thermodynamic State","pH","Total DOM1 [M]","Total O2(aq) [M]","Total HCO3- [M]","Total Fe+++ [M]","Total Fe++ [M]","Total Tracer2 [M]","Total Tracer3 [M]","Total CH4(aq) [M]","Total Acetate- [M]","Total CH3OH [M]","Total SO4-- [M]","Total HS- [M]","Free DOM1 [M]","Free O2(aq) [M]","Free HCO3- [M]","Free Fe+++ [M]","Free Fe++ [M]","Free Tracer2 [M]","Free Tracer3 [M]","Free CH4(aq) [M]","Free Acetate- [M]","Free CH3OH [M]","Free SO4-- [M]","Free HS- [M]","Gamma H2O","CO2(aq) [M]","Fe(OH)3 VF [m^3 mnrl/m^3 bulk]","Fe(OH)2 VF [m^3 mnrl/m^3 bulk]","Rock(s) VF [m^3 mnrl/m^3 bulk]","Fe(OH)3 Rate [mol/m^3/sec]","Fe(OH)2 Rate [mol/m^3/sec]","Rock(s) Rate [mol/m^3/sec]","Material ID"
ZONE T="0.00000E+00", STRANDID=1, SOLUTIONTIME=0.00000E+00, I=4, J=4, K=4, DATAPACKING=POINT
 1.250000E-01  1.250000E-01  1.250000E-01  1.911808E+05  2.000000E+05  7.500000E-01  2.500000E-01  9.999772E+02  2.472764E+00  3.094322E-05  9.999691E-01  9.946536E-01  5.346385E-03  8.000000E+00  6.037994E-01  6.059922E+00    3  5.001225E+00  5.000000E-02  2.000000E-04  3.989220E-06  4.645847E-10  2.400000E-03  1.000000E-15  1.000000E-15  1.000000E-15  1.000000E-15  2.000000E-03  1.000000E-03  1.000000E-15  5.000000E-02  2.000000E-04  1.729964E-07  4.511958E-10  2.400000E-03  1.000000E-15  1.000000E-15  1.000000E-15  1.000000E-15  2.000000E-03  1.000000E-03  1.000000E-15  1.000000E+00  3.815153E-06  9.600000E-06  7.200000E-01  5.000000E-01  0.000000E+00  0.000000E+00  0.000000E+00    1 
 3.750000E-01  1.250000E-01  1.250000E-01  1.911808E+05  2.000000E+05  7.500000E-01  2.500000E-01  9.999772E+02  2.472764E+00  3.094322E-05  9.999691E-01  9.946536E-01  5.346385E-03  8.000000E+00  6.037994E-01  6.059922E+00    3  5.001225E+00  5.000000E-02  2.000000E-04  3.989220E-06  4.645847E-10  2.400000E-03  1.000000E-15  1.000000E-15  1.000000E-15  1.000000E-15  2.000000E-03  1.000000E-03  1.000000E-15  5.000000E-02  2.000000E-04  1.729964E-07  4.511958E-10  2.400000E-03  1.000000E-15  1.000000E-15  1.000000E-15  1.000000E-15  2.000000E-03  1.000000E-03  1.000000E-15  1.000000E+00  3.815153E-06  9.600000E-06  7.200000E-01  5.000000E-01  0.000000E+00  0.000000E+00  0.000000E+00    1 
 6.250000E-01  1.250000E-01  1.250000E-01  1.911808E+05  2.000000E+05  7.500000E-01  2.500000E-01  9.999772E+02  2.472764E+00  3.094322E-05  9.999691E-01  9.946536E-01  5.346385E-03  8.000000E+00  6.037994E-01  6.059922E+00    3  5.001225E+00  5.000000E-02  2.000000E-04  3.989220E-06  4.645847E-10  2.400000E-03  1.000000E-15  1.000000E-15  1.000000E-15  1.000000E-15  2.000000E-03  1.000000E-03  1.000000E-15  5.000000E-02  2.000000E-04  1.729964E-07  4.511958E-10  2.400000E-03  1.000000E-15  1.000000E-15  1.000000E-15  1.000000E-15  2.000000E-03  1.000000E-03  1.000000E-15  1.000000E+00  3.815153E-06  9.600000E-06  7.200000E-01  5.000000E-01  0.000000E+00  0.000000E+00  0.000000E+00    1 
 8.750000E-01  1.250000E-01  1.250000E-01  1.911808E+05  2.000000E+05  7.500000E-01  2.500000E-01  9.999772E+02  2.472764E+00  3.094322E-05  9.999691E-01  9.946536E-01  5.346385E-03  8.000000E+00  6.037994E-01  6.059922E+00    3  5.001225E+00  5.000000E-02  2.000000E-04  3.989220E-06  4.645847E-10  2.400000E-03  1.000000E-15  1.000000E-15  1.000000E-15  1.000000E-15  2.000000E-03  1.000000E-03  1.000000E-15  5.000000E-02  2.000000E-04  1.729964E-07  4.511958E-10  2.400000E-03  1.000000E-15  1.000000E-15  1.000000E-15  1.000000E-15  2.000000E-03  1.000000E-03  1.000000E-15  1.000000E+00  3.815153E-06  9.600000E-06  7.200000E-01  5.000000E-01  0.000000E+00  0.000000E+00  0.000000E+00    1 
 1.250000E-01  3.750000E-01  1.250000E-01  1.911808E+05  2.000000E+05  7.500000E-01  2.500000E-01  9.999772E+02  2.472764E+00  3.094322E-05  9.999691E-01  9.946536E-01  5.346385E-03  8.000000E+00  6.037994E-01  6.059922E+00    3  5.001225E+00  5.000000E-02  2.000000E-04  3.989220E-06  4.645847E-10  2.400000E-03  1.000000E-15  1.000000E-15  1.000000E-15  1.000000E-15  2.000000E-03  1.000000E-03  1.000000E-15  5.000000E-02  2.000000E-04  1.729964E-07  4.511958E-10  2.400000E-03  1.000000E-15  1.000000E-15  1.000000E-15  1.000000E-15  2.000000E-03  1.000000E-03  1.000000E-15  1.000000E+00  3.815153E-06  9.600000E-06  7.200000E-01  5.000000E-01  0.000000E+00  0.000000E+00  0.000000E+00    1 
 3.750000E-01  3.750000E-01  1.250000E-01  1.911808E+05  2.000000E+05  7.500000E-01  2.500000E-01  9.999772E+02  2.472764E+00  3.094322E-05  9.999691E-01  9.946536E-01  5.346385E-03  8.000000E+00  6.037994E-01  6.059922E+00    3  5.001225E+00  5.000000E-02  2.000000E-04  3.989220E-06  4.645847E-10  2.400000E-03  1.000000E-15  1.000000E-15  1.000000E-15  1.000000E-15  2.000000E-03  1.000000E-03  1.000000E-15  5.000000E-02  2.000000E-04  1.729964E-07  4.511958E-10  2.400000E-03  1.000000E-15  1.000000E-15  1.000000E-15  1.000000E-15  2.000000E-03  1.000000E-03  1.000000E-15  1.000000E+00  3.815153E-06  9.600000E-06  7.200000E-01  5.000000E-01  0.000000E+00  0.000000E+00  0.000000E+00    1 
 6.250000E-01  3.750000E-01  1.250000E-01  1.911808E+05  2.000000E+05  7.500000E-01  2.500000E-01  9.999772E+02  2.472764E+00  3.094322E-05  9.999691E-01  9.946536E-01  5.346385E-03  8.000000E+00  6.037994E-01  6.059922E+00    3  5.001225E+00  5.000000E-02  2.000000E-04  3.989220E-06  4.645847E-10  2.400000E-03  1.000000E-15  1.000000E-15  1.000000E-15  1.000000E-15  2.000000E-03  1.000000E-03  1.000000E-15  5.000000E-02  2.000000E-04  1.729964E-07  4.511958E-10  2.400000E-03  1.000000E-15  1.000000E-15  1.000000E-15  1.000000E-15  2.000000E-03  1.000000E-03  1.000000E-15  1.000000E+00  3.815153E-06  9.600000E-06  7.200000E-01  5.000000E-01  0.000000E+00  0.000000E+00  0.000000E+00    1 
 8.750000E-01  3.750000E-01  1.250000E-01  1.911808E+05  2.000000E+05  7.500000E-01  2.500000E-01  9.999772E+02  2.472764E+00  3.094322E-05  9.999691E-01  9.946536E-01  5.346385E-03  8.000000E+00  6.037994E-01  6.059922E+00    3  5.001225E+00  5.000000E-02  2.000000E-04  3.989220E-06  4.645847E-10  2.400000E-03  1.000000E-15  1.000000E-15  1.000000E-15  1.000000E-15  2.000000E-03  1.000000E-03  1.000000E-15  5.000000E-02  2.000000E-04  1.729964E-07  4.511958E-10  2.400000E-03  1.000000E-15  1.000000E-15  1.000000E-15  1.000000E-15  2.000000E-03  1.000000E-03  1.000000E-15  1.000000E+00  3.815153E-06  9.600000E-06  7.200000E-01  5.000000E-01  0.000000E+00  0.000000E+00  0.000000E+00    1 
 1.250000E-01  6.250000E-01  1.250000E-01  1.911808E+05  2.000000E+05  7.500000E-01  2.500000E-01  9.999772E+02  2.472764E+00  3.094322E-05  9.999691E-01  9.946536E-01  5.346385E-03  8.000000E+00  6.037994E-01  6.059922E+00    3  5.001225E+00  5.000000E-02  2.000000E-04  3.989220E-06  4.645847E-10  2.400000E-03  1.000000E-15  1.000000E-15  1.000000E-15  1.000000E-15  2.000000E-03  1.000000E-03  1.000000E-15  5.000000E-02  2.000000E-04  1.729964E-07  4.511958E-10  2.400000E-03  1.000000E-15  1.000000E-15  1.000000E-15  1.000000E-15  2.000000E-03  1.000000E-03  1.000000E-15  1.000000E+00  3.815153E-06  9.600000E-06  7.200000E-01  5.000000E-01  0.000000E+00  0.000000E+00  0.000000E+00    1 
 3.750000E-01  6.250000E-01  1.250000E-01  1.911808E+05  2.000000E+05  7.500000E-01  2.500000E-01  9.999772E+02  2.472764E+00  3.094322E-05  9.999691E-01  9.946536E-01  5.346385E-03  8.000000E+00  6.037994E-01  6.059922E+00    3  5.001225E+00  5.000000E-02  2.000000E-04  3.989220E-06  4.645847E-10  2.400000E-03  1.000000E-15  1.000000E-15  1.000000E-15  1.000000E-15  2.000000E-03  1.000000E-03  1.000000E-15  5.000000E-02  2.000000E-04  1.729964E-07  4.511958E-10  2.400000E-03  1.000000E-15  1.000000E-15  1.000000E-15  1.000000E-15  2.000000E-03  1.000000E-03  1.000000E-15  1.000000E+00  3.815153E-06  9.600000E-06  7.200000E-01  5.000000E-01  0.000000E+00  0.000000E+00  0.000000E+00    1 
 6.250000E-01  6.250000E-01  1.250000E-01  1.911808E+05  2.000000E+05  7.500000E-01  2.500000E-01  9.999772E+02  2.472764E+00  3.094322E-05  9.999691E-01  9.946536E-01  5.346385E-03  8.000000E+00  6.037994E-01  6.059922E+00    3  5.001225E+00  5.000000E-02  2.000000E-04  3.989220E-06  4.645847E-10  2.400000E-03  1.000000E-15  1.000000E-15  1.000000E-15  1.000000E-15  2.000000E-03  1.000000E-03  1.000000E-15  5.000000E-02  2.000000E-04  1.729964E-07  4.511958E-10  2.400000E-03  1.000000E-15  1.000000E-15  1.000000E-15  1.000000E-15  2.000000E-03  1.000000E-03  1.000000E-15  1.000000E+00  3.815153E-06  9.600000E-06  7.200000E-01  5.000000E-01  0.000000E+00  0.000000E+00  0.000000E+00    1 
 8.750000E-01  6.250000E-01  1.250000E-01  1.911808E+05  2.000000E+05  7.500000E-01  2.500000E-01  9.999772E+02  2.472764E+00  3.094322E-05  9.999691E-01  9.946536E-01  5.346385E-03  8.000000E+00  6.037994E-01  6.059922E+00    3  5.001225E+00  5.000000E-02  2.000000E-04  3.989220E-06  4.645847E-10  2.400000E-03  1.000000E-15  1.000000E-15  1.000000E-15  1.000000E-15  2.000000E-03  1.000000E-03  1.000000E-15  5.000000E-02  2.000000E-04  1.729964E-07  4.511958E-10  2.400000E-03  1.000000E-15  1.000000E-15  1.000000E-15  1.000000E-15  2.000000E-03  1.000000E-03  1.000000E-15  1.000000E+00  3.815153E-06  9.600000E-06  7.200000E-01  5.000000E-01  0.000000E+00  0.000000E+00  0.000000E+00    1 
 1.250000E-01  8.750000E-01  1.250000E-01  1.911808E+05  2.000000E+05  7.500000E-01  2.500000E-01  9.999772E+02  2.472764E+00  3.094322E-05  9.999691E-01  9.946536E-01  5.346385E-03  8.000000E+00  6.037994E-01  6.059922E+00    3  5.001225E+00  5.000000E-02  2.000000E-04  3.989220E-06  4.645847E-10  2.400000E-03  1.000000E-15  1.000000E-15  1.000000E-15  1.000000E-15  2.000000E-03  1.000000E-03  1.000000E-15  5.000000E-02  2.000000E-04  1.729964E-07  4.511958E-10  2.400000E-03  1.000000E-15  1.000000E-15  1.000000E-15  1.000000E-15  2.000000E-03  1.000000E-03  1.000000E-15  1.000000E+00  3.815153E-06  9.600000E-06  7.200000E-01  5.000000E-01  0.000000E+00  0.000000E+00  0.000000E+00    1 
 3.750000E-01  8.750000E-01  1.250000E-01  1.911808E+05  2.000000E+05  7.500000E-01  2.500000E-01  9.999772E+02  2.472764E+00  3.094322E-05  9.999691E-01  9.946536E-01  5.346385E-03  8.000000E+00  6.037994E-01  6.059922E+00    3  5.001225E+00  5.000000E-02  2.000000E-04  3.989220E-06  4.645847E-10  2.400000E-03  1.000000E-15  1.000000E-15  1.000000E-15  1.000000E-15  2.000000E-03  1.000000E-03  1.000000E-15  5.000000E-02  2.000000E-04  1.729964E-07  4.511958E-10  2.400000E-03  1.000000E-15  1.000000E-15  1.000000E-15  1.000000E-15  2.000000E-03  1.000000E-03  1.000000E-15  1.000000E+00  3.815153E-06  9.600000E-06  7.200000E-01  5.000000E-01  0.000000E+00  0.000000E+00  0.000000E+00    1 
 6.250000E-01  8.750000E-01  1.250000E-01  1.911808E+05  2.000000E+05  7.500000E-01  2.500000E-01  9.999772E+02  2.472764E+00  3.094322E-05  9.999691E-01  9.946536E-01  5.346385E-03  8.000000E+00  6.037994E-01  6.059922E+00    3  5.001225E+00  5.000000E-02  2.000000E-04  3.989220E-06  4.645847E-10  2.400000E-03  1.000000E-15  1.000000E-15  1.000000E-15  1.000000E-15  2.000000E-03  1.000000E-03  1.000000E-15  5.000000E-02  2.000000E-04  1.729964E-07  4.511958E-10  2.400000E-03  1.000000E-15  1.000000E-15  1.000000E-15  1.000000E-15  2.000000E-03  1.000000E-03  1.000000E-15  1.000000E+00  3.815153E-06  9.600000E-06  7.200000E-01  5.000000E-01  0.000000E+00  0.000000E+00  0.000000E+00    1 
 8.750000E-01  8.750000E-01  1.250000E-01  1.911808E+05  2.000000E+05  7.500000E-01  2.500000E-01  9.999772E+02  2.472764E+00  3.094322E-05  9.999691E-01  9.946536E-01  5.346385E-03  8.000000E+00  6.037994E-01  6.059922E+00    3  5.001225E+00  5.000000E-02  2.000000E-04  3.989220E-06  4.645847E-10  2.400000E-03  1.000000E-15  1.000000E-15  1.000000E-15  1.000000E-15  2.000000E-03  1.000000E-03  1.000000E-15  5.000000E-02  2.000000E-04  1.729964E-07  4.511958E-10  2.400000E-03  1.000000E-15  1.000000E-15  1.000000E-15  1.000000E-15  2.000000E-03  1.000000E-03  1.000000E-15  1.000000E+00  3.815153E-06  9.600000E-06  7.200000E-01  5.000000E-01  0.000000E+00  0.000000E+00  0.000000E+00    1 
 1.250000E-01  1.250000E-01  3.750000E-01  1.911808E+05  2.000000E+05  7.500000E-01  2.500000E-01  9.999772E+02  2.472764E+00  3.094322E-05  9.999691E-01  9.946536E-01  5.346385E-03  8.000000E+00  6.037994E-01  6.059922E+00    3  5.001225E+00  5.000000E-02  2.000000E-04  3.989220E-06  4.645847E-10  2.400000E-03  1.000000E-15  1.000000E-15  1.000000E-15  1.000000E-15  2.000000E-03  1.000000E-03  1.000000E-15  5.000000E-02  2.000000E-04  1.729964E-07  4.511958E-10  2.400000E-03  1.000000E-15  1.000000E-15  1.000000E-15  1.000000E-15  2.000000E-03  1.000000E-03  1.000000E-15  1.000000E+00  3.815153E-06  9.600000E-06  7.200000E-01  5.000000E-01  0.000000E+00  0.000000E+00  0.000000E+00    1 
 3.750000E-01  1.250000E-01  3.750000E-01  1.911808E+05  2.000000E+05  7.500000E-01  2.500000E-01  9.999772E+02  2.472764E+00  3.094322E-05  9.999691E-01  9.946536E-01  5.346385E-03  8.000000E+00  6.037994E-01  6.059922E+00    3  5.001225E+00  5.000000E-02  2.000000E-04  3.989220E-06  4.645847E-10  2.400000E-03  1.000000E-15  1.000000E-15  1.000000E-15  1.000000E-15  2.000000E-03  1.000000E-03  1.000000E-15  5.000000E-02  2.000000E-04  1.729964E-07  4.511958E-10  2.400000E-03  1.000000E-15  1.000000E-15  1.000000E-15  1.000000E-15  2.000000E-03  1.000000E-03  1.000000E-15  1.000000E+00  3.815153E-06  9.600000E-06  7.200000E-01  5.000000E-01  0.000000E+00  0.000000E+00  0.000000E+00    1 
 6.250000E-01  1.250000E-01  3.750000E-01  1.911808E+05  2.000000E+05  7.500000E-01  2.500000E-01  9.999772E+02  2.472764E+00  3.094322E-05  9.999691E-01  9.946536E-01  5.346385E-03  8.000000E+00  6.037994E-01  6.059922E+00    3  5.001225E+00  5.000000E-02  2.000000E-04  3.989220E-06  4.645847E-10  2.400000E-03  1.000000E-15  1.000000E-15  1.000000E-15  1.000000E-15  2.000000E-03  1.000000E-03  1.000000E-15  5.000000E-02  2.000000E-04  1.729964E-07  4.511958E-10  2.400000E-03  1.000000E-15  1.000000E-15  1.000000E-15  1.000000E-15  2.000000E-03  1.000000E-03  1.000000E-15  1.000000E+00  3.815153E-06  9.600000E-06  7.200000E-01  5.000000E-01  0.000000E+00  0.000000E+00  0.000000E+00    1 
 8.750000E-01  1.250000E-01  3.750000E-01  1.911808E+05  2.000000E+05  7.500000E-01  2.500000E-01  9.999772E+02  2.472764E+00  3.094322E-05  9.999691E-01  9.946536E-01  5.346385E-03  8.000000E+00  6.037994E-01  6.059922E+00    3  5.001225E+00  5.000000E-02  2.000000E-04  3.989220E-06  4.645847E-10  2.400000E-03  1.000000E-15  1.000000E-15  1.000000E-15  1.000000E-15  2.000000E-03  1.000000E-03  1.000000E-15  5.000000E-02  2.000000E-04  1.729964E-07  4.511958E-10  2.400000E-03  1.000000E-15  1.000000E-15  1.000000E-15  1.000000E-15  2.000000E-03  1.000000E-03  1.000000E-15  1.000000E+00  3.815153E-06  9.600000E-06  7.200000E-01  5.000000E-01  0.000000E+00  0.000000E+00  0.000000E+00    1 
 1.250000E-01  3.750000E-01  3.750000E-01  1.911808E+05  2.000000E+05  7.500000E-01  2.500000E-01  9.999772E+02  2.472764E+00  3.094322E-05  9.999691E-01  9.946536E-01  5.346385E-03  8.000000E+00  6.037994E-01  6.059922E+00    3  5.001225E+00  5.000000E-02  2.000000E-04  3.989220E-06  4.645847E-10  2.400000E-03  1.000000E-15  1.000000E-15  1.000000E-15  1.000000E-15  2.000000E-03  1.000000E-03  1.000000E-15  5.000000E-02  2.000000E-04  1.729964E-07  4.511958E-10  2.400000E-03  1.000000E-15  1.000000E-15  1.000000E-15  1.000000E-15  2.000000E-03  1.000000E-03  1.000000E-15  1.000000E+00  3.815153E-06  9.600000E-06  7.200000E-01  5.000000E-01  0.000000E+00  0.000000E+00  0.000000E+00    1 
 3.750000E-01  3.750000E-01  3.750000E-01  1.911808E+05  2.000000E+05  7.500000E-01  2.500000E-01  9.999772E+02  2.472764E+00  3.094322E-05  9.999691E-01  9.946536E-01  5.346385E-03  8.000000E+00  6.037994E-01  6.059922E+00    3  5.001225E+00  5.000000E-02  2.000000E-04  3.989220E-06  4.645847E-10  2.400000E-03  1.000000E-15  1.000000E-15  1.000000E-15  1.000000E-15  2.000000E-03  1.000000E-03  1.000000E-15  5.000000E-02  2.000000E-04  1.729964E-07  4.511958E-10  2.400000E-03  1.000000E-15  1.000000E-15  1.000000E-15  1.000000E-15  2.000000E-03  1.000000E-03  1.000000E-15  1.000000E+00  3.815153E-06  9.600000E-06  7.200000E-01  5.000000E-01  0.000000E+00  0.000000E+00  0.000000E+00    1 
 6.250000E-01  3.750000E-01  3.750000E-01  1.911808E+05  2.000000E+05  7.500000E-01  2.500000E-01  9.999772E+02  2.472764E+00  3.094322E-05  9.999691E-01  9.946536E-01  5.346385E-03  8.000000E+00  6.037994E-01  6.059922E+00    3  5.001225E+00  5.000000E-02  2.000000E-04  3.989220E-06  4.645847E-10  2.400000E-03  1.000000E-15  1.000000E-15  1.000000E-15  1.000000E-15  2.000000E-03  1.000000E-03  1.000000E-15  5.000000E-02  2.000000E-04  1.729964E-07  4.511958E-10  2.400000E-03  1.000000E-15  1.000000E-15  1.000000E-15  1.000000E-15  2.000000E-03  1.000000E-03  1.000000E-15  1.000000E+00  3.815153E-06  9.600000E-06  7.200000E-01  5.000000E-01  0.000000E+00  0.000000E+00  0.000000E+00    1 
 8.750000E-01  3.750000E-01  3.750000E-01  1.911808E+05  2.000000E+05  7.500000E-01  2.500000E-01  9.999772E+02  2.472764E+00  3.094322E-05  9.999691E-01  9.946536E-01  5.346385E-03  8.000000E+00  6.037994E-01  6.059922E+00    3  5.001225E+00  5.000000E-02  2.000000E-04  3.989220E-06  4.645847E-10  2.400000E-03  1.000000E-15  1.000000E-15  1.000000E-15  1.000000E-15  2.000000E-03  1.000000E-03  1.000000E-15  5.000000E-02  2.000000E-04  1.729964E-07  4.511958E-10  2.400000E-03  1.000000E-15  1.000000E-15  1.000000E-15  1.000000E-15  2.000000E-03  1.000000E-03  1.000000E-15  1.000000E+00  3.815153E-06  9.600000E-06  7.200000E-01  5.000000E-01  0.000000E+00  0.000000E+00  0.000000E+00    1 
 1.250000E-01  6.250000E-01  3.750000E-01  1.911808E+05  2.000000E+05  7.500000E-01  2.500000E-01  9.999772E+02  2.472764E+00  3.094322E-05  9.999691E-01  9.946536E-01  5.346385E-03  8.000000E+00  6.037994E-01  6.059922E+00    3  5.001225E+00  5.000000E-02  2.000000E-04  3.989220E-06  4.645847E-10  2.400000E-03  1.000000E-15  1.000000E-15  1.000000E-15  1.000000E-15  2.000000E-03  1.000000E-03  1.000000E-15  5.000000E-02  2.000000E-04  1.729964E-07  4.511958E-10  2.400000E-03  1.000000E-15  1.000000E-15  1.000000E-15  1.000000E-15  2.000000E-03  1.000000E-03  1.000000E-15  1.000000E+00  3.815153E-06  9.600000E-06  7.200000E-01  5.000000E-01  0.000000E+00  0.000000E+00  0.000000E+00    1 
 3.750000E-01  6.250000E-01  3.750000E-01  1.911808E+05  2.000000E+05  7.500000E-01  2.500000E-01  9.999772E+02  2.472764E+00  3.094322E-05  9.999691E-01  9.946536E-01  5.346385E-03  8.000000E+00  6.037994E-01  6.059922E+00    3  5.001225E+00  5.000000E-02  2.000000E-04  3.989220E-06  4.645847E-10  2.400000E-03  1.000000E-15  1.000000E-15  1.000000E-15  1.000000E-15  2.000000E-03  1.000000E-03  1.000000E-15  5.000000E-02  2.000000E-04  1.729964E-07  4.511958E-10  2.400000E-03  1.000000E-15  1.000000E-15  1.000000E-15  1.000000E-15  2.000000E-03  1.000000E-03  1.000000E-15  1.000000E+00  3.815153E-06  9.600000E-06  7.200000E-01  5.000000E-01  0.000000E+00  0.000000E+00  0.000000E+00    1 
 6.250000E-01  6.250000E-01  3.750000E-01  1.911808E+05  2.000000E+05  7.500000E-01  2.500000E-01  9.999772E+02  2.472764E+00  3.094322E-05  9.999691E-01  9.946536E-01  5.346385E-03  8.000000E+00  6.037994E-01  6.059922E+00    3  5.001225E+00  5.000000E-02  2.000000E-04  3.989220E-06  4.645847E-10  2.400000E-03  1.000000E-15  1.000000E-15  1.000000E-15  1.000000E-15  2.000000E-03  1.000000E-03  1.000000E-15  5.000000E-02  2.000000E-04  1.729964E-07  4.511958E-10  2.400000E-03  1.000000E-15  1.000000E-15  1.000000E-15  1.000000E-15  2.000000E-03  1.000000E-03  1.000000E-15  1.000000E+00  3.815153E-06  9.600000E-06  7.200000E-01  5.000000E-01  0.000000E+00  0.000000E+00  0.000000E+00    1 
 8.750000E-01  6.250000E-01  3.750000E-01  1.911808E+05  2.000000E+05  7.500000E-01  2.500000E-01  9.999772E+02  2.472764E+00  3.094322E-05  9.999691E-01  9.946536E-01  5.346385E-03  8.000000E+00  6.037994E-01  6.059922E+00    3  5.001225E+00  5.000000E-02  2.000000E-04  3.989220E-06  4.645847E-10  2.400000E-03  1.000000E-15  1.000000E-15  1.000000E-15  1.000000E-15  2.000000E-03  1.000000E-03  1.000000E-15  5.000000E-02  2.000000E-04  1.729964E-07  4.511958E-10  2.400000E-03  1.000000E-15  1.000000E-15  1.000000E-15  1.000000E-15  2.000000E-03  1.000000E-03  1.000000E-15  1.000000E+00  3.815153E-06  9.600000E-06  7.200000E-01  5.000000E-01  0.000000E+00  0.000000E+00  0.000000E+00    1 
 1.250000E-01  8.750000E-01  3.750000E-01  1.911808E+05  2.000000E+05  7.500000E-01  2.500000E-01  9.999772E+02  2.472764E+00  3.094322E-05  9.999691E-01  9.946536E-01  5.346385E-03  8.000000E+00  6.037994E-01  6.059922E+00    3  5.001225E+00  5.000000E-02  2.000000E-04  3.989220E-06  4.645847E-10  2.400000E-03  1.000000E-15  1.000000E-15  1.000000E-15  1.000000E-15  2.000000E-03  1.000000E-03  1.000000E-15  5.000000E-02  2.000000E-04  1.729964E-07  4.511958E-10  2.400000E-03  1.000000E-15  1.000000E-15  1.000000E-15  1.000000E-15  2.000000E-03  1.000000E-03  1.000000E-15  1.000000E+00  3.815153E-06  9.600000E-06  7.200000E-01  5.000000E-01  0.000000E+00  0.000000E+00  0.000000E+00    1 
 3.750000E-01  8.750000E-01  3.750000E-01  1.911808E+05  2.000000E+05  7.500000E-01  2.500000E-01  9.999772E+02  2.472764E+00  3.094322E-05  9.999691E-01  9.946536E-01  5.346385E-03  8.000000E+00  6.037994E-01  6.059922E+00    3  5.001225E+00  5.000000E-02  2.000000E-04  3.989220E-06  4.645847E-10  2.400000E-03  1.000000E-15  1.000000E-15  1.000000E-15  1.000000E-15  2.000000E-03  1.000000E-03  1.000000E-15  5.000000E-02  2.000000E-04  1.729964E-07  4.511958E-10  2.400000E-03  1.000000E-15  1.000000E-15  1.000000E-15  1.000000E-15  2.000000E-03  1.000000E-03  1.000000E-15  1.000000E+00  3.815153E-06  9.600000E-06  7.200000E-01  5.000000E-01  0.000000E+00  0.000000E+00  0.000000E+00    1 
 6.250000E-01  8.750000E-01  3.750000E-01  1.911808E+05  2.000000E+05  7.500000E-01  2.500000E-01  9.999772E+02  2.472764E+00  3.094322E-05  9.999691E-01  9.946536E-01  5.346385E-03  8.000000E+00  6.037994E-01  6.059922E+00    3  5.001225E+00  5.000000E-02  2.000000E-04  3.989220E-06  4.645847E-10  2.400000E-03  1.000000E-15  1.000000E-15  1.000000E-15  1.000000E-15  2.000000E-03  1.000000E-03  1.000000E-15  5.000000E-02  2.000000E-04  1.729964E-07  4.511958E-10  2.400000E-03  1.000000E-15  1.000000E-15  1.000000E-15  1.000000E-15  2.000000E-03  1.000000E-03  1.000000E-15  1.000000E+00  3.815153E-06  9.600000E-06  7.200000E-01  5.000000E-01  0.000000E+00  0.000000E+00  0.000000E+00    1 
 8.750000E-01  8.750000E-01  3.750000E-01  1.911808E+05  2.000000E+05  7.500000E-01  2.500000E-01  9.999772E+02  2.472764E+00  3.094322E-05  9.999691E-01  9.946536E-01  5.346385E-03  8.000000E+00  6.037994E-01  6.059922E+00    3  5.001225E+00  5.000000E-02  2.000000E-04  3.989220E-06  4.645847E-10  2.400000E-03  1.000000E-15  1.000000E-15  1.000000E-15  1.000000E-15  2.000000E-03  1.000000E-03  1.000000E-15  5.000000E-02  2.000000E-04  1.729964E-07  4.511958E-10  2.400000E-03  1.000000E-15  1.000000E-15  1.000000E-15  1.000000E-15  2.000000E-03  1.000000E-03  1.000000E-15  1.000000E+00  3.815153E-06  9.600000E-06  7.200000E-01  5.000000E-01  0.000000E+00  0.000000E+00  0.000000E+00    1 
 1.250000E-01  1.250000E-01  6.250000E-01  1.911808E+05  2.000000E+05  7.500000E-01  2.500000E-01  9.999772E+02  2.472764E+00  3.094322E-05  9.999691E-01  9.946536E-01  5.346385E-03  8.000000E+00  6.037994E-01  6.059922E+00    3  5.001225E+00  5.000000E-02  2.000000E-04  3.989220E-06  4.645847E-10  2.400000E-03  1.000000E-15  1.000000E-15  1.000000E-15  1.000000E-15  2.000000E-03  1.000000E-03  1.000000E-15  5.000000E-02  2.000000E-04  1.729964E-07  4.511958E-10  2.400000E-03  1.000000E-15  1.000000E-15  1.000000E-15  1.000000E-15  2.000000E-03  1.000000E-03  1.000000E-15  1.000000E+00  3.815153E-06  9.600000E-06  7.200000E-01  5.000000E-01  0.000000E+00  0.000000E+00  0.000000E+00    1 
 3.750000E-01  1.250000E-01  6.250000E-01  1.911808E+05  2.000000E+05  7.500000E-01  2.500000E-01  9.999772E+02  2.472764E+00  3.094322E-05  9.999691E-01  9.946536E-01  5.346385E-03  8.000000E+00  6.037994E-01  6.059922E+00    3  5.001225E+00  5.000000E-02  2.000000E-04  3.989220E-06  4.645847E-10  2.400000E-03  1.000000E-15  1.000000E-15  1.000000E-15  1.000000E-15  2.000000E-03  1.000000E-03  1.000000E-15  5.000000E-02  2.000000E-04  1.729964E-07  4.511958E-10  2.400000E-03  1.000000E-15  1.000000E-15  1.000000E-15  1.000000E-15  2.000000E-03  1.000000E-03  1.000000E-15  1.000000E+00  3.815153E-06  9.600000E-06  7.200000E-01  5.000000E-01  0.000000E+00  0.000000E+00  0.000000E+00    1 
 6.250000E-01  1.250000E-01  6.250000E-01  1.911808E+05  2.000000E+05  7.500000E-01  2.500000E-01  9.999772E+02  2.472764E+00  3.094322E-05  9.999691E-01  9.946536E-01  5.346385E-03  8.000000E+00  6.037994E-01  6.059922E+00    3  5.001225E+00  5.000000E-02  2.000000E-04  3.989220E-06  4.645847E-10  2.400000E-03  1.000000E-15  1.000000E-15  1.000000E-15  1.000000E-15  2.000000E-03  1.000000E-03  1.000000E-15  5.000000E-02  2.000000E-04  1.729964E-07  4.511958E-10  2.400000E-03  1.000000E-15  1.000000E-15  1.000000E-15  1.000000E-15  2.000000E-03  1.000000E-03  1.000000E-15  1.000000E+00  3.815153E-06  9.600000E-06  7.200000E-01  5.000000E-01  0.000000E+00  0.000000E+00  0.000000E+00    1 
 8.750000E-01  1.250000E-01  6.250000E-01  1.911808E+05  2.000000E+05  7.500000E-01  2.500000E-01  9.999772E+02  2.472764E+00  3.094322E-05  9.999691E-01  9.946536E-01  5.346385E-03  8.000000E+00  6.037994E-01  6.059922E+00    3  5.001225E+00  5.000000E-02  2.000000E-04  3.989220E-06  4.645847E-10  2.400000E-03  1.000000E-15  1.000000E-15  1.000000E-15  1.000000E-15  2.000000E-03  1.000000E-03  1.000000E-15  5.000000E-02  2.000000E-04  1.729964E-07  4.511958E-10  2.400000E-03  1.000000E-15  1.000000E-15  1.000000E-15  1.000000E-15  2.000000E-03  1.000000E-03  1.000000E-15  1.000000E+00  3.815153E-06  9.600000E-06  7.200000E-01  5.000000E-01  0.000000E+00  0.000000E+00  0.000000E+00    1 
 1.250000E-01  3.750000E-01  6.250000E-01  1.911808E+05  2.000000E+05  7.500000E-01  2.500000E-01  9.999772E+02  2.472764E+00  3.094322E-05  9.999691E-01  9.946536E-01  5.346385E-03  8.000000E+00  6.037994E-01  6.059922E+00    3  5.001225E+00  5.000000E-02  2.000000E-04  3.989220E-06  4.645847E-10  2.400000E-03  1.000000E-15  1.000000E-15  1.000000E-15  1.000000E-15  2.000000E-03  1.000000E-03  1.000000E-15  5.000000E-02  2.000000E-04  1.729964E-07  4.511958E-10  2.400000E-03  1.000000E-15  1.000000E-15  1.000000E-15  1.000000E-15  2.000000E-03  1.000000E-03  1.000000E-15  1.000000E+00  3.815153E-06  9.600000E-06  7.200000E-01  5.000000E-01  0.000000E+00  0.000000E+00  0.000000E+00    1 
 3.750000E-01  3.750000E-01  6.250000E-01  1.911808E+05  2.000000E+05  7.500000E-01  2.500000E-01  9.999772E+02  2.472764E+00  3.094322E-05  9.999691E-01  9.946536E-01  5.346385E-03  8.000000E+00  6.037994E-01  6.059922E+00    3  5.001225E+00  5.000000E-02  2.000000E-04  3.989220E-06  4.645847E-10  2.400000E-03  1.000000E-15  1.000000E-15  1.000000E-15  1.000000E-15  2.000000E-03  1.000000E-03  1.000000E-15  5.000000E-02  2.000000E-04  1.729964E-07  4.511958E-10  2.400000E-03  1.000000E-15  1.000000E-15  1.000000E-15  1.000000E-15  2.000000E-03  1.000000E-03  1.000000E-15  1.000000E+00  3.815153E-06  9.600000E-06  7.200000E-01  5.000000E-01  0.000000E+00  0.000000E+00  0.000000E+00    1 
 6.250000E-01  3.750000E-01  6.250000E-01  1.911808E+05  2.000000E+05  7.500000E-01  2.500000E-01  9.999772E+02  2.472764E+00  3.094322E-05  9.999691E-01  9.946536E-01  5.346385E-03  8.000000E+00  6.037994E-01  6.059922E+00    3  5.001225E+00  5.000000E-02  2.000000E-04  3.989220E-06  4.645847E-10  2.400000E-03  1.000000E-15  1.000000E-15  1.000000E-15  1.000000E-15  2.000000E-03  1.000000E-03  1.000000E-15  5.000000E-02  2.000000E-04  1.729964E-07  4.511958E-10  2.400000E-03  1.000000E-15  1.000000E-15  1.000000E-15  1.000000E-15  2.000000E-03  1.000000E-03  1.000000E-15  1.000000E+00  3.815153E-06  9.600000E-06  7.200000E-01  5.000000E-01  0.000000E+00  0.000000E+00  0.000000E+00    1 
 8.750000E-01  3.750000E-01  6.250000E-01  1.911808E+05  2.000000E+05  7.500000E-01  2.500000E-01  9.999772E+02  2.472764E+00  3.094322E-05  9.999691E-01  9.946536E-01  5.346385E-03  8.000000E+00  6.037994E-01  6.059922E+00    3  5.001225E+00  5.000000E-02  2.000000E-04  3.989220E-06  4.645847E-10  2.400000E-03  1.000000E-15  1.000000E-15  1.000000E-15  1.000000E-15  2.000000E-03  1.000000E-03  1.000000E-15  5.000000E-02  2.000000E-04  1.729964E-07  4.511958E-10  2.400000E-03  1.000000E-15  1.000000E-15  1.000000E-15  1.000000E-15  2.000000E-03  1.000000E-03  1.000000E-15  1.000000E+00  3.815153E-06  9.600000E-06  7.200000E-01  5.000000E-01  0.000000E+00  0.000000E+00  0.000000E+00    1 
 1.250000E-01  6.250000E-01  6.250000E-01  1.911808E+05  2.000000E+05  7.500000E-01  2.500000E-01  9.999772E+02  2.472764E+00  3.094322E-05  9.999691E-01  9.946536E-01  5.346385E-03  8.000000E+00  6.037994E-01  6.059922E+00    3  5.001225E+00  5.000000E-02  2.000000E-04  3.989220E-06  4.645847E-10  2.400000E-03  1.000000E-15  1.000000E-15  1.000000E-15  1.000000E-15  2.000000E-03  1.000000E-03  1.000000E-15  5.000000E-02  2.000000E-04  1.729964E-07  4.511958E-10  2.400000E-03  1.000000E-15  1.000000E-15  1.000000E-15  1.000000E-15  2.000000E-03  1.000000E-03  1.000000E-15  1.000000E+00  3.815153E-06  9.600000E-06  7.200000E-01  5.000000E-01  0.000000E+00  0.000000E+00  0.000000E+00    1 