TITLE = "  2.00000E+00 [d]"
VARIABLES="X [m]","Y [m]","Z [m]","Liquid Pressure [Pa]","Gas Pressure [Pa]","Liquid Saturation","Gas Saturation","Liquid Density [kg/m^3]","Gas Density [kg/m^3]","X_g^l","X_l^l","X_g^g","X_l^g","Temperature [C]","Liquid Energy [MJ/kmol]","Gas Energy [MJ/kmol]","Thermodynamic State","pH","Total DOM1 [M]","Total O2(aq) [M]","Total HCO3- [M]","Total Fe+++ [M]","Total Fe++ [M]","Total Tracer2 [M]","Total Tracer3 [M]","Total CH4(aq) [M]","Total Acetate- [M]","Total CH3OH [M]","Total SO4-- [M]","Total HS- [M]","Total Cl- [M]","Free DOM1 [M]","Free O2(aq) [M]","Free HCO3- [M]","Free Fe+++ [M]","Free Fe++ [M]","Free Tracer2 [M]","Free Tracer3 [M]","Free CH4(aq) [M]","Free Acetate- [M]","Free CH3OH [M]","Free SO4-- [M]","Free HS- [M]","Free Cl- [M]","Gamma H2O","CO2(aq) [M]","Fe(OH)3 VF [m^3 mnrl/m^3 bulk]","Fe(OH)2 VF [m^3 mnrl/m^3 bulk]","Rock(s) VF [m^3 mnrl/m^3 bulk]","Fe(OH)3 Rate [mol/m^3/sec]","Fe(OH)2 Rate [mol/m^3/sec]","Rock(s) Rate [mol/m^3/sec]","Material ID"
ZONE T="2.00000E+00", STRANDID=1, SOLUTIONTIME=2.00000E+00, I=4, J=4, K=4, DATAPACKING=POINT
 1.250000E-01  1.250000E-01  1.250000E-01  1.924598E+05  2.001413E+05  7.930369E-01  2.069631E-01  9.999772E+02  2.474514E+00  3.096520E-05  9.999690E-01  9.946574E-01  5.342610E-03  8.000000E+00  6.037993E-01  6.059782E+00    3  4.699924E+00  1.000293E-15  9.999772E-26  3.131767E-02  4.917993E-09  8.003255E+03  1.000000E-15  8.740755E-04  9.999997E-16  1.000037E-15  1.000000E-15  1.000000E-15  1.000000E-15  1.000168E-15  1.000293E-15  9.999772E-26  2.967613E-05  3.595985E-09  8.003225E+03  1.000000E-15  8.740755E-04  9.999997E-16  1.000037E-15  1.000000E-15  1.000000E-15  1.000000E-15  1.000168E-15  1.000000E+00  1.309734E-03  2.961579E-05  7.199656E-01  5.000000E-01  4.331632E-11 -7.496064E-06  0.000000E+00    1 
 3.750000E-01  1.250000E-01  1.250000E-01  1.924598E+05  2.001413E+05  7.930369E-01  2.069631E-01  9.999772E+02  2.474514E+00  3.096520E-05  9.999690E-01  9.946574E-01  5.342610E-03  8.000000E+00  6.037993E-01  6.059782E+00    3  4.699924E+00  1.000293E-15  9.999772E-26  3.131767E-02  4.917993E-09  8.003255E+03  1.000000E-15  8.740755E-04  9.999997E-16  1.000037E-15  1.000000E-15  1.000000E-15  1.000000E-15  1.000168E-15  1.000293E-15  9.999772E-26  2.967613E-05  3.595985E-09  8.003225E+03  1.000000E-15  8.740755E-04  9.999997E-16  1.000037E-15  1.000000E-15  1.000000E-15  1.000000E-15  1.000168E-15  1.000000E+00  1.309734E-03  2.961579E-05  7.199656E-01  5.000000E-01  4.331632E-11 -7.496064E-06  0.000000E+00    1 
 6.250000E-01  1.250000E-01  1.250000E-01  1.924598E+05  2.001413E+05  7.930369E-01  2.069631E-01  9.999772E+02  2.474514E+00  3.096520E-05  9.999690E-01  9.946574E-01  5.342610E-03  8.000000E+00  6.037993E-01  6.059782E+00    3  4.699924E+00  1.000293E-15  9.999772E-26  3.131767E-02  4.917993E-09  8.003255E+03  1.000000E-15  8.740755E-04  9.999997E-16  1.000037E-15  1.000000E-15  1.000000E-15  1.000000E-15  1.000168E-15  1.000293E-15  9.999772E-26  2.967613E-05  3.595985E-09  8.003225E+03  1.000000E-15  8.740755E-04  9.999997E-16  1.000037E-15  1.000000E-15  1.000000E-15  1.000000E-15  1.000168E-15  1.000000E+00  1.309734E-03  2.961579E-05  7.199656E-01  5.000000E-01  4.331632E-11 -7.496064E-06  0.000000E+00    1 
 8.750000E-01  1.250000E-01  1.250000E-01  1.924598E+05  2.001413E+05  7.930369E-01  2.069631E-01  9.999772E+02  2.474514E+00  3.096520E-05  9.999690E-01  9.946574E-01  5.342610E-03  8.000000E+00  6.037993E-01  6.059782E+00    3  4.699924E+00  1.000293E-15  9.999772E-26  3.131767E-02  4.917993E-09  8.003255E+03  1.000000E-15  8.740755E-04  9.999997E-16  1.000037E-15  1.000000E-15  1.000000E-15  1.000000E-15  1.000168E-15  1.000293E-15  9.999772E-26  2.967613E-05  3.595985E-09  8.003225E+03  1.000000E-15  8.740755E-04  9.999997E-16  1.000037E-15  1.000000E-15  1.000000E-15  1.000000E-15  1.000168E-15  1.000000E+00  1.309734E-03  2.961579E-05  7.199656E-01  5.000000E-01  4.331632E-11 -7.496064E-06  0.000000E+00    1 
 1.250000E-01  3.750000E-01  1.250000E-01  1.924598E+05  2.001413E+05  7.930369E-01  2.069631E-01  9.999772E+02  2.474514E+00  3.096520E-05  9.999690E-01  9.946574E-01  5.342610E-03  8.000000E+00  6.037993E-01  6.059782E+00    3  4.699924E+00  1.000293E-15  9.999772E-26  3.131767E-02  4.917993E-09  8.003255E+03  1.000000E-15  8.740755E-04  9.999997E-16  1.000037E-15  1.000000E-15  1.000000E-15  1.000000E-15  1.000168E-15  1.000293E-15  9.999772E-26  2.967613E-05  3.595985E-09  8.003225E+03  1.000000E-15  8.740755E-04  9.999997E-16  1.000037E-15  1.000000E-15  1.000000E-15  1.000000E-15  1.000168E-15  1.000000E+00  1.309734E-03  2.961579E-05  7.199656E-01  5.000000E-01  4.331632E-11 -7.496064E-06  0.000000E+00    1 
 3.750000E-01  3.750000E-01  1.250000E-01  1.924598E+05  2.001413E+05  7.930369E-01  2.069631E-01  9.999772E+02  2.474514E+00  3.096520E-05  9.999690E-01  9.946574E-01  5.342610E-03  8.000000E+00  6.037993E-01  6.059782E+00    3  4.699924E+00  1.000293E-15  9.999772E-26  3.131767E-02  4.917993E-09  8.003255E+03  1.000000E-15  8.740755E-04  9.999997E-16  1.000037E-15  1.000000E-15  1.000000E-15  1.000000E-15  1.000168E-15  1.000293E-15  9.999772E-26  2.967613E-05  3.595985E-09  8.003225E+03  1.000000E-15  8.740755E-04  9.999997E-16  1.000037E-15  1.000000E-15  1.000000E-15  1.000000E-15  1.000168E-15  1.000000E+00  1.309734E-03  2.961579E-05  7.199656E-01  5.000000E-01  4.331632E-11 -7.496064E-06  0.000000E+00    1 
 6.250000E-01  3.750000E-01  1.250000E-01  1.924598E+05  2.001413E+05  7.930369E-01  2.069631E-01  9.999772E+02  2.474514E+00  3.096520E-05  9.999690E-01  9.946574E-01  5.342610E-03  8.000000E+00  6.037993E-01  6.059782E+00    3  4.699924E+00  1.000293E-15  9.999772E-26  3.131767E-02  4.917993E-09  8.003255E+03  1.000000E-15  8.740755E-04  9.999997E-16  1.000037E-15  1.000000E-15  1.000000E-15  1.000000E-15  1.000168E-15  1.000293E-15  9.999772E-26  2.967613E-05  3.595985E-09  8.003225E+03  1.000000E-15  8.740755E-04  9.999997E-16  1.000037E-15  1.000000E-15  1.000000E-15  1.000000E-15  1.000168E-15  1.000000E+00  1.309734E-03  2.961579E-05  7.199656E-01  5.000000E-01  4.331632E-11 -7.496064E-06  0.000000E+00    1 
 8.750000E-01  3.750000E-01  1.250000E-01  1.924598E+05  2.001413E+05  7.930369E-01  2.069631E-01  9.999772E+02  2.474514E+00  3.096520E-05  9.999690E-01  9.946574E-01  5.342610E-03  8.000000E+00  6.037993E-01  6.059782E+00    3  4.699924E+00  1.000293E-15  9.999772E-26  3.131767E-02  4.917993E-09  8.003255E+03  1.000000E-15  8.740755E-04  9.999997E-16  1.000037E-15  1.000000E-15  1.000000E-15  1.000000E-15  1.000168E-15  1.000293E-15  9.999772E-26  2.967613E-05  3.595985E-09  8.003225E+03  1.000000E-15  8.740755E-04  9.999997E-16  1.000037E-15  1.000000E-15  1.000000E-15  1.000000E-15  1.000168E-15  1.000000E+00  1.309734E-03  2.961579E-05  7.199656E-01  5.000000E-01  4.331632E-11 -7.496064E-06  0.000000E+00    1 
 1.250000E-01  6.250000E-01  1.250000E-01  1.924598E+05  2.001413E+05  7.930369E-01  2.069631E-01  9.999772E+02  2.474514E+00  3.096520E-05  9.999690E-01  9.946574E-01  5.342610E-03  8.000000E+00  6.037993E-01  6.059782E+00    3  4.699924E+00  1.000293E-15  9.999772E-26  3.131767E-02  4.917993E-09  8.003255E+03  1.000000E-15  8.740755E-04  9.999997E-16  1.000037E-15  1.000000E-15  1.000000E-15  1.000000E-15  1.000168E-15  1.000293E-15  9.999772E-26  2.967613E-05  3.595985E-09  8.003225E+03  1.000000E-15  8.740755E-04  9.999997E-16  1.000037E-15  1.000000E-15  1.000000E-15  1.000000E-15  1.000168E-15  1.000000E+00  1.309734E-03  2.961579E-05  7.199656E-01  5.000000E-01  4.331632E-11 -7.496064E-06  0.000000E+00    1 
 3.750000E-01  6.250000E-01  1.250000E-01  1.924598E+05  2.001413E+05  7.930369E-01  2.069631E-01  9.999772E+02  2.474514E+00  3.096520E-05  9.999690E-01  9.946574E-01  5.342610E-03  8.000000E+00  6.037993E-01  6.059782E+00    3  4.699924E+00  1.000293E-15  9.999772E-26  3.131767E-02  4.917993E-09  8.003255E+03  1.000000E-15  8.740755E-04  9.999997E-16  1.000037E-15  1.000000E-15  1.000000E-15  1.000000E-15  1.000168E-15  1.000293E-15  9.999772E-26  2.967613E-05  3.595985E-09  8.003225E+03  1.000000E-15  8.740755E-04  9.999997E-16  1.000037E-15  1.000000E-15  1.000000E-15  1.000000E-15  1.000168E-15  1.000000E+00  1.309734E-03  2.961579E-05  7.199656E-01  5.000000E-01  4.331632E-11 -7.496064E-06  0.000000E+00    1 
 6.250000E-01  6.250000E-01  1.250000E-01  1.924598E+05  2.001413E+05  7.930369E-01  2.069631E-01  9.999772E+02  2.474514E+00  3.096520E-05  9.999690E-01  9.946574E-01  5.342610E-03  8.000000E+00  6.037993E-01  6.059782E+00    3  4.699924E+00  1.000293E-15  9.999772E-26  3.131767E-02  4.917993E-09  8.003255E+03  1.000000E-15  8.740755E-04  9.999997E-16  1.000037E-15  1.000000E-15  1.000000E-15  1.000000E-15  1.000168E-15  1.000293E-15  9.999772E-26  2.967613E-05  3.595985E-09  8.003225E+03  1.000000E-15  8.740755E-04  9.999997E-16  1.000037E-15  1.000000E-15  1.000000E-15  1.000000E-15  1.000168E-15  1.000000E+00  1.309734E-03  2.961579E-05  7.199656E-01  5.000000E-01  4.331632E-11 -7.496064E-06  0.000000E+00    1 
 8.750000E-01  6.250000E-01  1.250000E-01  1.924598E+05  2.001413E+05  7.930369E-01  2.069631E-01  9.999772E+02  2.474514E+00  3.096520E-05  9.999690E-01  9.946574E-01  5.342610E-03  8.000000E+00  6.037993E-01  6.059782E+00    3  4.699924E+00  1.000293E-15  9.999772E-26  3.131767E-02  4.917993E-09  8.003255E+03  1.000000E-15  8.740755E-04  9.999997E-16  1.000037E-15  1.000000E-15  1.000000E-15  1.000000E-15  1.000168E-15  1.000293E-15  9.999772E-26  2.967613E-05  3.595985E-09  8.003225E+03  1.000000E-15  8.740755E-04  9.999997E-16  1.000037E-15  1.000000E-15  1.000000E-15  1.000000E-15  1.000168E-15  1.000000E+00  1.309734E-03  2.961579E-05  7.199656E-01  5.000000E-01  4.331632E-11 -7.496064E-06  0.000000E+00    1 
 1.250000E-01  8.750000E-01  1.250000E-01  1.924598E+05  2.001413E+05  7.930369E-01  2.069631E-01  9.999772E+02  2.474514E+00  3.096520E-05  9.999690E-01  9.946574E-01  5.342610E-03  8.000000E+00  6.037993E-01  6.059782E+00    3  4.699924E+00  1.000293E-15  9.999772E-26  3.131767E-02  4.917993E-09  8.003255E+03  1.000000E-15  8.740755E-04  9.999997E-16  1.000037E-15  1.000000E-15  1.000000E-15  1.000000E-15  1.000168E-15  1.000293E-15  9.999772E-26  2.967613E-05  3.595985E-09  8.003225E+03  1.000000E-15  8.740755E-04  9.999997E-16  1.000037E-15  1.000000E-15  1.000000E-15  1.000000E-15  1.000168E-15  1.000000E+00  1.309734E-03  2.961579E-05  7.199656E-01  5.000000E-01  4.331632E-11 -7.496064E-06  0.000000E+00    1 
 3.750000E-01  8.750000E-01  1.250000E-01  1.924598E+05  2.001413E+05  7.930369E-01  2.069631E-01  9.999772E+02  2.474514E+00  3.096520E-05  9.999690E-01  9.946574E-01  5.342610E-03  8.000000E+00  6.037993E-01  6.059782E+00    3  4.699924E+00  1.000293E-15  9.999772E-26  3.131767E-02  4.917993E-09  8.003255E+03  1.000000E-15  8.740755E-04  9.999997E-16  1.000037E-15  1.000000E-15  1.000000E-15  1.000000E-15  1.000168E-15  1.000293E-15  9.999772E-26  2.967613E-05  3.595985E-09  8.003225E+03  1.000000E-15  8.740755E-04  9.999997E-16  1.000037E-15  1.000000E-15  1.000000E-15  1.000000E-15  1.000168E-15  1.000000E+00  1.309734E-03  2.961579E-05  7.199656E-01  5.000000E-01  4.331632E-11 -7.496064E-06  0.000000E+00    1 
 6.250000E-01  8.750000E-01  1.250000E-01  1.924598E+05  2.001413E+05  7.930369E-01  2.069631E-01  9.999772E+02  2.474514E+00  3.096520E-05  9.999690E-01  9.946574E-01  5.342610E-03  8.000000E+00  6.037993E-01  6.059782E+00    3  4.699924E+00  1.000293E-15  9.999772E-26  3.131767E-02  4.917993E-09  8.003255E+03  1.000000E-15  8.740755E-04  9.999997E-16  1.000037E-15  1.000000E-15  1.000000E-15  1.000000E-15  1.000168E-15  1.000293E-15  9.999772E-26  2.967613E-05  3.595985E-09  8.003225E+03  1.000000E-15  8.740755E-04  9.999997E-16  1.000037E-15  1.000000E-15  1.000000E-15  1.000000E-15  1.000168E-15  1.000000E+00  1.309734E-03  2.961579E-05  7.199656E-01  5.000000E-01  4.331632E-11 -7.496064E-06  0.000000E+00    1 
 8.750000E-01  8.750000E-01  1.250000E-01  1.924598E+05  2.001413E+05  7.930369E-01  2.069631E-01  9.999772E+02  2.474514E+00  3.096520E-05  9.999690E-01  9.946574E-01  5.342610E-03  8.000000E+00  6.037993E-01  6.059782E+00    3  4.699924E+00  1.000293E-15  9.999772E-26  3.131767E-02  4.917993E-09  8.003255E+03  1.000000E-15  8.740755E-04  9.999997E-16  1.000037E-15  1.000000E-15  1.000000E-15  1.000000E-15  1.000168E-15  1.000293E-15  9.999772E-26  2.967613E-05  3.595985E-09  8.003225E+03  1.000000E-15  8.740755E-04  9.999997E-16  1.000037E-15  1.000000E-15  1.000000E-15  1.000000E-15  1.000168E-15  1.000000E+00  1.309734E-03  2.961579E-05  7.199656E-01  5.000000E-01  4.331632E-11 -7.496064E-06  0.000000E+00    1 
 1.250000E-01  1.250000E-01  3.750000E-01  1.918800E+05  2.001190E+05  7.717901E-01  2.282099E-01  9.999772E+02  2.474238E+00  3.096173E-05  9.999690E-01  9.946568E-01  5.343206E-03  8.000000E+00  6.037994E-01  6.059804E+00    3  4.699395E+00  1.000255E-15  9.999772E-26  3.131767E-02  4.935839E-09  8.003255E+03  1.000000E-15  8.740900E-04  9.999998E-16  1.000032E-15  1.000000E-15  1.000000E-15  1.000000E-15  1.000141E-15  1.000255E-15  9.999772E-26  2.970924E-05  3.609154E-09  8.003225E+03  1.000000E-15  8.740900E-04  9.999998E-16  1.000032E-15  1.000000E-15  1.000000E-15  1.000000E-15  1.000141E-15  1.000000E+00  1.312794E-03  2.961642E-05  7.199656E-01  5.000000E-01  1.244884E-10 -7.502157E-06  0.000000E+00    1 
 3.750000E-01  1.250000E-01  3.750000E-01  1.918800E+05  2.001190E+05  7.717901E-01  2.282099E-01  9.999772E+02  2.474238E+00  3.096173E-05  9.999690E-01  9.946568E-01  5.343206E-03  8.000000E+00  6.037994E-01  6.059804E+00    3  4.699395E+00  1.000255E-15  9.999772E-26  3.131767E-02  4.935839E-09  8.003255E+03  1.000000E-15  8.740900E-04  9.999998E-16  1.000032E-15  1.000000E-15  1.000000E-15  1.000000E-15  1.000141E-15  1.000255E-15  9.999772E-26  2.970924E-05  3.609154E-09  8.003225E+03  1.000000E-15  8.740900E-04  9.999998E-16  1.000032E-15  1.000000E-15  1.000000E-15  1.000000E-15  1.000141E-15  1.000000E+00  1.312794E-03  2.961642E-05  7.199656E-01  5.000000E-01  1.244884E-10 -7.502157E-06  0.000000E+00    1 
 6.250000E-01  1.250000E-01  3.750000E-01  1.918800E+05  2.001190E+05  7.717901E-01  2.282099E-01  9.999772E+02  2.474238E+00  3.096173E-05  9.999690E-01  9.946568E-01  5.343206E-03  8.000000E+00  6.037994E-01  6.059804E+00    3  4.699395E+00  1.000255E-15  9.999772E-26  3.131767E-02  4.935839E-09  8.003255E+03  1.000000E-15  8.740900E-04  9.999998E-16  1.000032E-15  1.000000E-15  1.000000E-15  1.000000E-15  1.000141E-15  1.000255E-15  9.999772E-26  2.970924E-05  3.609154E-09  8.003225E+03  1.000000E-15  8.740900E-04  9.999998E-16  1.000032E-15  1.000000E-15  1.000000E-15  1.000000E-15  1.000141E-15  1.000000E+00  1.312794E-03  2.961642E-05  7.199656E-01  5.000000E-01  1.244884E-10 -7.502157E-06  0.000000E+00    1 
 8.750000E-01  1.250000E-01  3.750000E-01  1.918800E+05  2.001190E+05  7.717901E-01  2.282099E-01  9.999772E+02  2.474238E+00  3.096173E-05  9.999690E-01  9.946568E-01  5.343206E-03  8.000000E+00  6.037994E-01  6.059804E+00    3  4.699395E+00  1.000255E-15  9.999772E-26  3.131767E-02  4.935839E-09  8.003255E+03  1.000000E-15  8.740900E-04  9.999998E-16  1.000032E-15  1.000000E-15  1.000000E-15  1.000000E-15  1.000141E-15  1.000255E-15  9.999772E-26  2.970924E-05  3.609154E-09  8.003225E+03  1.000000E-15  8.740900E-04  9.999998E-16  1.000032E-15  1.000000E-15  1.000000E-15  1.000000E-15  1.000141E-15  1.000000E+00  1.312794E-03  2.961642E-05  7.199656E-01  5.000000E-01  1.244884E-10 -7.502157E-06  0.000000E+00    1 
 1.250000E-01  3.750000E-01  3.750000E-01  1.918800E+05  2.001190E+05  7.717901E-01  2.282099E-01  9.999772E+02  2.474238E+00  3.096173E-05  9.999690E-01  9.946568E-01  5.343206E-03  8.000000E+00  6.037994E-01  6.059804E+00    3  4.699395E+00  1.000255E-15  9.999772E-26  3.131767E-02  4.935839E-09  8.003255E+03  1.000000E-15  8.740900E-04  9.999998E-16  1.000032E-15  1.000000E-15  1.000000E-15  1.000000E-15  1.000141E-15  1.000255E-15  9.999772E-26  2.970924E-05  3.609154E-09  8.003225E+03  1.000000E-15  8.740900E-04  9.999998E-16  1.000032E-15  1.000000E-15  1.000000E-15  1.000000E-15  1.000141E-15  1.000000E+00  1.312794E-03  2.961642E-05  7.199656E-01  5.000000E-01  1.244884E-10 -7.502157E-06  0.000000E+00    1 
 3.750000E-01  3.750000E-01  3.750000E-01  1.918800E+05  2.001190E+05  7.717901E-01  2.282099E-01  9.999772E+02  2.474238E+00  3.096173E-05  9.999690E-01  9.946568E-01  5.343206E-03  8.000000E+00  6.037994E-01  6.059804E+00    3  4.699395E+00  1.000255E-15  9.999772E-26  3.131767E-02  4.935839E-09  8.003255E+03  1.000000E-15  8.740900E-04  9.999998E-16  1.000032E-15  1.000000E-15  1.000000E-15  1.000000E-15  1.000141E-15  1.000255E-15  9.999772E-26  2.970924E-05  3.609154E-09  8.003225E+03  1.000000E-15  8.740900E-04  9.999998E-16  1.000032E-15  1.000000E-15  1.000000E-15  1.000000E-15  1.000141E-15  1.000000E+00  1.312794E-03  2.961642E-05  7.199656E-01  5.000000E-01  1.244884E-10 -7.502157E-06  0.000000E+00    1 
 6.250000E-01  3.750000E-01  3.750000E-01  1.918800E+05  2.001190E+05  7.717901E-01  2.282099E-01  9.999772E+02  2.474238E+00  3.096173E-05  9.999690E-01  9.946568E-01  5.343206E-03  8.000000E+00  6.037994E-01  6.059804E+00    3  4.699395E+00  1.000255E-15  9.999772E-26  3.131767E-02  4.935839E-09  8.003255E+03  1.000000E-15  8.740900E-04  9.999998E-16  1.000032E-15  1.000000E-15  1.000000E-15  1.000000E-15  1.000141E-15  1.000255E-15  9.999772E-26  2.970924E-05  3.609154E-09  8.003225E+03  1.000000E-15  8.740900E-04  9.999998E-16  1.000032E-15  1.000000E-15  1.000000E-15  1.000000E-15  1.000141E-15  1.000000E+00  1.312794E-03  2.961642E-05  7.199656E-01  5.000000E-01  1.244884E-10 -7.502157E-06  0.000000E+00    1 
 8.750000E-01  3.750000E-01  3.750000E-01  1.918800E+05  2.001190E+05  7.717901E-01  2.282099E-01  9.999772E+02  2.474238E+00  3.096173E-05  9.999690E-01  9.946568E-01  5.343206E-03  8.000000E+00  6.037994E-01  6.059804E+00    3  4.699395E+00  1.000255E-15  9.999772E-26  3.131767E-02  4.935839E-09  8.003255E+03  1.000000E-15  8.740900E-04  9.999998E-16  1.000032E-15  1.000000E-15  1.000000E-15  1.000000E-15  1.000141E-15  1.000255E-15  9.999772E-26  2.970924E-05  3.609154E-09  8.003225E+03  1.000000E-15  8.740900E-04  9.999998E-16  1.000032E-15  1.000000E-15  1.000000E-15  1.000000E-15  1.000141E-15  1.000000E+00  1.312794E-03  2.961642E-05  7.199656E-01  5.000000E-01  1.244884E-10 -7.502157E-06  0.000000E+00    1 
 1.250000E-01  6.250000E-01  3.750000E-01  1.918800E+05  2.001190E+05  7.717901E-01  2.282099E-01  9.999772E+02  2.474238E+00  3.096173E-05  9.999690E-01  9.946568E-01  5.343206E-03  8.000000E+00  6.037994E-01  6.059804E+00    3  4.699395E+00  1.000255E-15  9.999772E-26  3.131767E-02  4.935839E-09  8.003255E+03  1.000000E-15  8.740900E-04  9.999998E-16  1.000032E-15  1.000000E-15  1.000000E-15  1.000000E-15  1.000141E-15  1.000255E-15  9.999772E-26  2.970924E-05  3.609154E-09  8.003225E+03  1.000000E-15  8.740900E-04  9.999998E-16  1.000032E-15  1.000000E-15  1.000000E-15  1.000000E-15  1.000141E-15  1.000000E+00  1.312794E-03  2.961642E-05  7.199656E-01  5.000000E-01  1.244884E-10 -7.502157E-06  0.000000E+00    1 
 3.750000E-01  6.250000E-01  3.750000E-01  1.918800E+05  2.001190E+05  7.717901E-01  2.282099E-01  9.999772E+02  2.474238E+00  3.096173E-05  9.999690E-01  9.946568E-01  5.343206E-03  8.000000E+00  6.037994E-01  6.059804E+00    3  4.699395E+00  1.000255E-15  9.999772E-26  3.131767E-02  4.935839E-09  8.003255E+03  1.000000E-15  8.740900E-04  9.999998E-16  1.000032E-15  1.000000E-15  1.000000E-15  1.000000E-15  1.000141E-15  1.000255E-15  9.999772E-26  2.970924E-05  3.609154E-09  8.003225E+03  1.000000E-15  8.740900E-04  9.999998E-16  1.000032E-15  1.000000E-15  1.000000E-15  1.000000E-15  1.000141E-15  1.000000E+00  1.312794E-03  2.961642E-05  7.199656E-01  5.000000E-01  1.244884E-10 -7.502157E-06  0.000000E+00    1 
 6.250000E-01  6.250000E-01  3.750000E-01  1.918800E+05  2.001190E+05  7.717901E-01  2.282099E-01  9.999772E+02  2.474238E+00  3.096173E-05  9.999690E-01  9.946568E-01  5.343206E-03  8.000000E+00  6.037994E-01  6.059804E+00    3  4.699395E+00  1.000255E-15  9.999772E-26  3.131767E-02  4.935839E-09  8.003255E+03  1.000000E-15  8.740900E-04  9.999998E-16  1.000032E-15  1.000000E-15  1.000000E-15  1.000000E-15  1.000141E-15  1.000255E-15  9.999772E-26  2.970924E-05  3.609154E-09  8.003225E+03  1.000000E-15  8.740900E-04  9.999998E-16  1.000032E-15  1.000000E-15  1.000000E-15  1.000000E-15  1.000141E-15  1.000000E+00  1.312794E-03  2.961642E-05  7.199656E-01  5.000000E-01  1.244884E-10 -7.502157E-06  0.000000E+00    1 
 8.750000E-01  6.250000E-01  3.750000E-01  1.918800E+05  2.001190E+05  7.717901E-01  2.282099E-01  9.999772E+02  2.474238E+00  3.096173E-05  9.999690E-01  9.946568E-01  5.343206E-03  8.000000E+00  6.037994E-01  6.059804E+00    3  4.699395E+00  1.000255E-15  9.999772E-26  3.131767E-02  4.935839E-09  8.003255E+03  1.000000E-15  8.740900E-04  9.999998E-16  1.000032E-15  1.000000E-15  1.000000E-15  1.000000E-15  1.000141E-15  1.000255E-15  9.999772E-26  2.970924E-05  3.609154E-09  8.003225E+03  1.000000E-15  8.740900E-04  9.999998E-16  1.000032E-15  1.000000E-15  1.000000E-15  1.000000E-15  1.000141E-15  1.000000E+00  1.312794E-03  2.961642E-05  7.199656E-01  5.000000E-01  1.244884E-10 -7.502157E-06  0.000000E+00    1 
 1.250000E-01  8.750000E-01  3.750000E-01  1.918800E+05  2.001190E+05  7.717901E-01  2.282099E-01  9.999772E+02  2.474238E+00  3.096173E-05  9.999690E-01  9.946568E-01  5.343206E-03  8.000000E+00  6.037994E-01  6.059804E+00    3  4.699395E+00  1.000255E-15  9.999772E-26  3.131767E-02  4.935839E-09  8.003255E+03  1.000000E-15  8.740900E-04  9.999998E-16  1.000032E-15  1.000000E-15  1.000000E-15  1.000000E-15  1.000141E-15  1.000255E-15  9.999772E-26  2.970924E-05  3.609154E-09  8.003225E+03  1.000000E-15  8.740900E-04  9.999998E-16  1.000032E-15  1.000000E-15  1.000000E-15  1.000000E-15  1.000141E-15  1.000000E+00  1.312794E-03  2.961642E-05  7.199656E-01  5.000000E-01  1.244884E-10 -7.502157E-06  0.000000E+00    1 
 3.750000E-01  8.750000E-01  3.750000E-01  1.918800E+05  2.001190E+05  7.717901E-01  2.282099E-01  9.999772E+02  2.474238E+00  3.096173E-05  9.999690E-01  9.946568E-01  5.343206E-03  8.000000E+00  6.037994E-01  6.059804E+00    3  4.699395E+00  1.000255E-15  9.999772E-26  3.131767E-02  4.935839E-09  8.003255E+03  1.000000E-15  8.740900E-04  9.999998E-16  1.000032E-15  1.000000E-15  1.000000E-15  1.000000E-15  1.000141E-15  1.000255E-15  9.999772E-26  2.970924E-05  3.609154E-09  8.003225E+03  1.000000E-15  8.740900E-04  9.999998E-16  1.000032E-15  1.000000E-15  1.000000E-15  1.000000E-15  1.000141E-15  1.000000E+00  1.312794E-03  2.961642E-05  7.199656E-01  5.000000E-01  1.244884E-10 -7.502157E-06  0.000000E+00    1 
 6.250000E-01  8.750000E-01  3.750000E-01  1.918800E+05  2.001190E+05  7.717901E-01  2.282099E-01  9.999772E+02  2.474238E+00  3.096173E-05  9.999690E-01  9.946568E-01  5.343206E-03  8.000000E+00  6.037994E-01  6.059804E+00    3  4.699395E+00  1.000255E-15  9.999772E-26  3.131767E-02  4.935839E-09  8.003255E+03  1.000000E-15  8.740900E-04  9.999998E-16  1.000032E-15  1.000000E-15  1.000000E-15  1.000000E-15  1.000141E-15  1.000255E-15  9.999772E-26  2.970924E-05  3.609154E-09  8.003225E+03  1.000000E-15  8.740900E-04  9.999998E-16  1.000032E-15  1.000000E-15  1.000000E-15  1.000000E-15  1.000141E-15  1.000000E+00  1.312794E-03  2.961642E-05  7.199656E-01  5.000000E-01  1.244884E-10 -7.502157E-06  0.000000E+00    1 
 8.750000E-01  8.750000E-01  3.750000E-01  1.918800E+05  2.001190E+05  7.717901E-01  2.282099E-01  9.999772E+02  2.474238E+00  3.096173E-05  9.999690E-01  9.946568E-01  5.343206E-03  8.000000E+00  6.037994E-01  6.059804E+00    3  4.699395E+00  1.000255E-15  9.999772E-26  3.131767E-02  4.935839E-09  8.003255E+03  1.000000E-15  8.740900E-04  9.999998E-16  1.000032E-15  1.000000E-15  1.000000E-15  1.000000E-15  1.000141E-15  1.000255E-15  9.999772E-26  2.970924E-05  3.609154E-09  8.003225E+03  1.000000E-15  8.740900E-04  9.999998E-16  1.000032E-15  1.000000E-15  1.000000E-15  1.000000E-15  1.000141E-15  1.000000E+00  1.312794E-03  2.961642E-05  7.199656E-01  5.000000E-01  1.244884E-10 -7.502157E-06  0.000000E+00    1 
 1.250000E-01  1.250000E-01  6.250000E-01  1.923292E+05  2.000877E+05  7.900883E-01  2.099117E-01  9.999772E+02  2.473850E+00  3.095686E-05  9.999690E-01  9.946560E-01  5.344042E-03  8.000000E+00  6.037994E-01  6.059835E+00    3  4.698338E+00  1.000180E-15  9.999772E-26  3.131767E-02  5.005076E-09  8.003255E+03  1.000000E-15  8.741186E-04  9.999998E-16  1.000023E-15  1.000000E-15  1.000000E-15  1.000000E-15  1.000093E-15  1.000180E-15  9.999772E-26  2.977546E-05  3.660024E-09  8.003225E+03  1.000000E-15  8.741186E-04  9.999998E-16  1.000023E-15  1.000000E-15  1.000000E-15  1.000000E-15  1.000093E-15  1.000000E+00  1.318925E-03  3.349473E-05  7.199656E-01  5.000000E-01  6.720157E-07 -7.514284E-06  0.000000E+00    1 
 3.750000E-01  1.250000E-01  6.250000E-01  1.923292E+05  2.000877E+05  7.900883E-01  2.099117E-01  9.999772E+02  2.473850E+00  3.095686E-05  9.999690E-01  9.946560E-01  5.344042E-03  8.000000E+00  6.037994E-01  6.059835E+00    3  4.698338E+00  1.000180E-15  9.999772E-26  3.131767E-02  5.005076E-09  8.003255E+03  1.000000E-15  8.741186E-04  9.999998E-16  1.000023E-15  1.000000E-15  1.000000E-15  1.000000E-15  1.000093E-15  1.000180E-15  9.999772E-26  2.977546E-05  3.660024E-09  8.003225E+03  1.000000E-15  8.741186E-04  9.999998E-16  1.000023E-15  1.000000E-15  1.000000E-15  1.000000E-15  1.000093E-15  1.000000E+00  1.318925E-03  3.349473E-05  7.199656E-01  5.000000E-01  6.720157E-07 -7.514284E-06  0.000000E+00    1 
 6.250000E-01  1.250000E-01  6.250000E-01  1.923292E+05  2.000877E+05  7.900883E-01  2.099117E-01  9.999772E+02  2.473850E+00  3.095686E-05  9.999690E-01  9.946560E-01  5.344042E-03  8.000000E+00  6.037994E-01  6.059835E+00    3  4.698338E+00  1.000180E-15  9.999772E-26  3.131767E-02  5.005076E-09  8.003255E+03  1.000000E-15  8.741186E-04  9.999998E-16  1.000023E-15  1.000000E-15  1.000000E-15  1.000000E-15  1.000093E-15  1.000180E-15  9.999772E-26  2.977546E-05  3.660024E-09  8.003225E+03  1.000000E-15  8.741186E-04  9.999998E-16  1.000023E-15  1.000000E-15  1.000000E-15  1.000000E-15  1.000093E-15  1.000000E+00  1.318925E-03  3.349473E-05  7.199656E-01  5.000000E-01  6.720157E-07 -7.514284E-06  0.000000E+00    1 
 8.750000E-01  1.250000E-01  6.250000E-01  1.923292E+05  2.000877E+05  7.900883E-01  2.099117E-01  9.999772E+02  2.473850E+00  3.095686E-05  9.999690E-01  9.946560E-01  5.344042E-03  8.000000E+00  6.037994E-01  6.059835E+00    3  4.698338E+00  1.000180E-15  9.999772E-26  3.131767E-02  5.005076E-09  8.003255E+03  1.000000E-15  8.741186E-04  9.999998E-16  1.000023E-15  1.000000E-15  1.000000E-15  1.000000E-15  1.000093E-15  1.000180E-15  9.999772E-26  2.977546E-05  3.660024E-09  8.003225E+03  1.000000E-15  8.741186E-04  9.999998E-16  1.000023E-15  1.000000E-15  1.000000E-15  1.000000E-15  1.000093E-15  1.000000E+00  1.318925E-03  3.349473E-05  7.199656E-01  5.000000E-01  6.720157E-07 -7.514284E-06  0.000000E+00    1 
 1.250000E-01  3.750000E-01  6.250000E-01  1.923292E+05  2.000877E+05  7.900883E-01  2.099117E-01  9.999772E+02  2.473850E+00  3.095686E-05  9.999690E-01  9.946560E-01  5.344042E-03  8.000000E+00  6.037994E-01  6.059835E+00    3  4.698338E+00  1.000180E-15  9.999772E-26  3.131767E-02  5.005076E-09  8.003255E+03  1.000000E-15  8.741186E-04  9.999998E-16  1.000023E-15  1.000000E-15  1.000000E-15  1.000000E-15  1.000093E-15  1.000180E-15  9.999772E-26  2.977546E-05  3.660024E-09  8.003225E+03  1.000000E-15  8.741186E-04  9.999998E-16  1.000023E-15  1.000000E-15  1.000000E-15  1.000000E-15  1.000093E-15  1.000000E+00  1.318925E-03  3.349473E-05  7.199656E-01  5.000000E-01  6.720157E-07 -7.514284E-06  0.000000E+00    1 
 3.750000E-01  3.750000E-01  6.250000E-01  1.923292E+05  2.000877E+05  7.900883E-01  2.099117E-01  9.999772E+02  2.473850E+00  3.095686E-05  9.999690E-01  9.946560E-01  5.344042E-03  8.000000E+00  6.037994E-01  6.059835E+00    3  4.698338E+00  1.000180E-15  9.999772E-26  3.131767E-02  5.005076E-09  8.003255E+03  1.000000E-15  8.741186E-04  9.999998E-16  1.000023E-15  1.000000E-15  1.000000E-15  1.000000E-15  1.000093E-15  1.000180E-15  9.999772E-26  2.977546E-05  3.660024E-09  8.003225E+03  1.000000E-15  8.741186E-04  9.999998E-16  1.000023E-15  1.000000E-15  1.000000E-15  1.000000E-15  1.000093E-15  1.000000E+00  1.318925E-03  3.349473E-05  7.199656E-01  5.000000E-01  6.720157E-07 -7.514284E-06  0.000000E+00    1 
 6.250000E-01  3.750000E-01  6.250000E-01  1.923292E+05  2.000877E+05  7.900883E-01  2.099117E-01  9.999772E+02  2.473850E+00  3.095686E-05  9.999690E-01  9.946560E-01  5.344042E-03  8.000000E+00  6.037994E-01  6.059835E+00    3  4.698338E+00  1.000180E-15  9.999772E-26  3.131767E-02  5.005076E-09  8.003255E+03  1.000000E-15  8.741186E-04  9.999998E-16  1.000023E-15  1.000000E-15  1.000000E-15  1.000000E-15  1.000093E-15  1.000180E-15  9.999772E-26  2.977546E-05  3.660024E-09  8.003225E+03  1.000000E-15  8.741186E-04  9.999998E-16  1.000023E-15  1.000000E-15  1.000000E-15  1.000000E-15  1.000093E-15  1.000000E+00  1.318925E-03  3.349473E-05  7.199656E-01  5.000000E-01  6.720157E-07 -7.514284E-06  0.000000E+00    1 