TITLE = "  1.00000E+00 [d]"
VARIABLES="X [m]","Y [m]","Z [m]","Liquid Pressure [Pa]","Gas Pressure [Pa]","Liquid Saturation","Gas Saturation","Liquid Density [kg/m^3]","Gas Density [kg/m^3]","X_g^l","X_l^l","X_g^g","X_l^g","Temperature [C]","Liquid Energy [MJ/kmol]","Gas Energy [MJ/kmol]","Thermodynamic State","pH","Total DOM1 [M]","Total O2(aq) [M]","Total HCO3- [M]","Total Fe+++ [M]","Total Fe++ [M]","Total Tracer2 [M]","Total Tracer3 [M]","Total CH4(aq) [M]","Total Acetate- [M]","Total CH3OH [M]","Total SO4-- [M]","Total HS- [M]","Free DOM1 [M]","Free O2(aq) [M]","Free HCO3- [M]","Free Fe+++ [M]","Free Fe++ [M]","Free Tracer2 [M]","Free Tracer3 [M]","Free CH4(aq) [M]","Free Acetate- [M]","Free CH3OH [M]","Free SO4-- [M]","Free HS- [M]","Gamma H2O","CO2(aq) [M]","Fe(OH)3 VF [m^3 mnrl/m^3 bulk]","Fe(OH)2 VF [m^3 mnrl/m^3 bulk]","Rock(s) VF [m^3 mnrl/m^3 bulk]","Fe(OH)3 Rate [mol/m^3/sec]","Fe(OH)2 Rate [mol/m^3/sec]","Rock(s) Rate [mol/m^3/sec]","Material ID"
ZONE T="1.00000E+00", STRANDID=1, SOLUTIONTIME=1.00000E+00, I=4, J=4, K=4, DATAPACKING=POINT
 1.250000E-01  1.250000E-01  1.250000E-01  1.918847E+05  2.001270E+05  7.716664E-01  2.283336E-01  9.999772E+02  2.474337E+00  3.096297E-05  9.999690E-01  9.946570E-01  5.342993E-03  8.000000E+00  6.037993E-01  6.059796E+00    3  4.700001E+00  4.641787E-14  9.999772E-26  3.131767E-02  4.915396E-09  8.003255E+03  1.000000E-15  8.686046E-04  1.000093E-15  1.697431E-15  2.901303E-15  1.950691E-15  1.000000E-15  4.641787E-14  9.999772E-26  2.967131E-05  3.594068E-09  8.003225E+03  1.000000E-15  8.686046E-04  1.000093E-15  1.697431E-15  2.901303E-15  1.950691E-15  1.000000E-15  1.000000E+00  1.309288E-03  2.960775E-05  7.199828E-01  5.000000E-01  4.330242E-11 -7.495174E-06  0.000000E+00    1 
 3.750000E-01  1.250000E-01  1.250000E-01  1.918847E+05  2.001270E+05  7.716664E-01  2.283336E-01  9.999772E+02  2.474337E+00  3.096297E-05  9.999690E-01  9.946570E-01  5.342993E-03  8.000000E+00  6.037993E-01  6.059796E+00    3  4.700001E+00  4.641787E-14  9.999772E-26  3.131767E-02  4.915396E-09  8.003255E+03  1.000000E-15  8.686046E-04  1.000093E-15  1.697431E-15  2.901303E-15  1.950691E-15  1.000000E-15  4.641787E-14  9.999772E-26  2.967131E-05  3.594068E-09  8.003225E+03  1.000000E-15  8.686046E-04  1.000093E-15  1.697431E-15  2.901303E-15  1.950691E-15  1.000000E-15  1.000000E+00  1.309288E-03  2.960775E-05  7.199828E-01  5.000000E-01  4.330242E-11 -7.495174E-06  0.000000E+00    1 
 6.250000E-01  1.250000E-01  1.250000E-01  1.918847E+05  2.001270E+05  7.716664E-01  2.283336E-01  9.999772E+02  2.474337E+00  3.096297E-05  9.999690E-01  9.946570E-01  5.342993E-03  8.000000E+00  6.037993E-01  6.059796E+00    3  4.700001E+00  4.641787E-14  9.999772E-26  3.131767E-02  4.915396E-09  8.003255E+03  1.000000E-15  8.686046E-04  1.000093E-15  1.697431E-15  2.901303E-15  1.950691E-15  1.000000E-15  4.641787E-14  9.999772E-26  2.967131E-05  3.594068E-09  8.003225E+03  1.000000E-15  8.686046E-04  1.000093E-15  1.697431E-15  2.901303E-15  1.950691E-15  1.000000E-15  1.000000E+00  1.309288E-03  2.960775E-05  7.199828E-01  5.000000E-01  4.330242E-11 -7.495174E-06  0.000000E+00    1 
 8.750000E-01  1.250000E-01  1.250000E-01  1.918847E+05  2.001270E+05  7.716664E-01  2.283336E-01  9.999772E+02  2.474337E+00  3.096297E-05  9.999690E-01  9.946570E-01  5.342993E-03  8.000000E+00  6.037993E-01  6.059796E+00    3  4.700001E+00  4.641787E-14  9.999772E-26  3.131767E-02  4.915396E-09  8.003255E+03  1.000000E-15  8.686046E-04  1.000093E-15  1.697431E-15  2.901303E-15  1.950691E-15  1.000000E-15  4.641787E-14  9.999772E-26  2.967131E-05  3.594068E-09  8.003225E+03  1.000000E-15  8.686046E-04  1.000093E-15  1.697431E-15  2.901303E-15  1.950691E-15  1.000000E-15  1.000000E+00  1.309288E-03  2.960775E-05  7.199828E-01  5.000000E-01  4.330242E-11 -7.495174E-06  0.000000E+00    1 
 1.250000E-01  3.750000E-01  1.250000E-01  1.918847E+05  2.001270E+05  7.716664E-01  2.283336E-01  9.999772E+02  2.474337E+00  3.096297E-05  9.999690E-01  9.946570E-01  5.342993E-03  8.000000E+00  6.037993E-01  6.059796E+00    3  4.700001E+00  4.641787E-14  9.999772E-26  3.131767E-02  4.915396E-09  8.003255E+03  1.000000E-15  8.686046E-04  1.000093E-15  1.697431E-15  2.901303E-15  1.950691E-15  1.000000E-15  4.641787E-14  9.999772E-26  2.967131E-05  3.594068E-09  8.003225E+03  1.000000E-15  8.686046E-04  1.000093E-15  1.697431E-15  2.901303E-15  1.950691E-15  1.000000E-15  1.000000E+00  1.309288E-03  2.960775E-05  7.199828E-01  5.000000E-01  4.330242E-11 -7.495174E-06  0.000000E+00    1 
 3.750000E-01  3.750000E-01  1.250000E-01  1.918847E+05  2.001270E+05  7.716664E-01  2.283336E-01  9.999772E+02  2.474337E+00  3.096297E-05  9.999690E-01  9.946570E-01  5.342993E-03  8.000000E+00  6.037993E-01  6.059796E+00    3  4.700001E+00  4.641787E-14  9.999772E-26  3.131767E-02  4.915396E-09  8.003255E+03  1.000000E-15  8.686046E-04  1.000093E-15  1.697431E-15  2.901303E-15  1.950691E-15  1.000000E-15  4.641787E-14  9.999772E-26  2.967131E-05  3.594068E-09  8.003225E+03  1.000000E-15  8.686046E-04  1.000093E-15  1.697431E-15  2.901303E-15  1.950691E-15  1.000000E-15  1.000000E+00  1.309288E-03  2.960775E-05  7.199828E-01  5.000000E-01  4.330242E-11 -7.495174E-06  0.000000E+00    1 
 6.250000E-01  3.750000E-01  1.250000E-01  1.918847E+05  2.001270E+05  7.716664E-01  2.283336E-01  9.999772E+02  2.474337E+00  3.096297E-05  9.999690E-01  9.946570E-01  5.342993E-03  8.000000E+00  6.037993E-01  6.059796E+00    3  4.700001E+00  4.641787E-14  9.999772E-26  3.131767E-02  4.915396E-09  8.003255E+03  1.000000E-15  8.686046E-04  1.000093E-15  1.697431E-15  2.901303E-15  1.950691E-15  1.000000E-15  4.641787E-14  9.999772E-26  2.967131E-05  3.594068E-09  8.003225E+03  1.000000E-15  8.686046E-04  1.000093E-15  1.697431E-15  2.901303E-15  1.950691E-15  1.000000E-15  1.000000E+00  1.309288E-03  2.960775E-05  7.199828E-01  5.000000E-01  4.330242E-11 -7.495174E-06  0.000000E+00    1 
 8.750000E-01  3.750000E-01  1.250000E-01  1.918847E+05  2.001270E+05  7.716664E-01  2.283336E-01  9.999772E+02  2.474337E+00  3.096297E-05  9.999690E-01  9.946570E-01  5.342993E-03  8.000000E+00  6.037993E-01  6.059796E+00    3  4.700001E+00  4.641787E-14  9.999772E-26  3.131767E-02  4.915396E-09  8.003255E+03  1.000000E-15  8.686046E-04  1.000093E-15  1.697431E-15  2.901303E-15  1.950691E-15  1.000000E-15  4.641787E-14  9.999772E-26  2.967131E-05  3.594068E-09  8.003225E+03  1.000000E-15  8.686046E-04  1.000093E-15  1.697431E-15  2.901303E-15  1.950691E-15  1.000000E-15  1.000000E+00  1.309288E-03  2.960775E-05  7.199828E-01  5.000000E-01  4.330242E-11 -7.495174E-06  0.000000E+00    1 
 1.250000E-01  6.250000E-01  1.250000E-01  1.918847E+05  2.001270E+05  7.716664E-01  2.283336E-01  9.999772E+02  2.474337E+00  3.096297E-05  9.999690E-01  9.946570E-01  5.342993E-03  8.000000E+00  6.037993E-01  6.059796E+00    3  4.700001E+00  4.641787E-14  9.999772E-26  3.131767E-02  4.915396E-09  8.003255E+03  1.000000E-15  8.686046E-04  1.000093E-15  1.697431E-15  2.901303E-15  1.950691E-15  1.000000E-15  4.641787E-14  9.999772E-26  2.967131E-05  3.594068E-09  8.003225E+03  1.000000E-15  8.686046E-04  1.000093E-15  1.697431E-15  2.901303E-15  1.950691E-15  1.000000E-15  1.000000E+00  1.309288E-03  2.960775E-05  7.199828E-01  5.000000E-01  4.330242E-11 -7.495174E-06  0.000000E+00    1 
 3.750000E-01  6.250000E-01  1.250000E-01  1.918847E+05  2.001270E+05  7.716664E-01  2.283336E-01  9.999772E+02  2.474337E+00  3.096297E-05  9.999690E-01  9.946570E-01  5.342993E-03  8.000000E+00  6.037993E-01  6.059796E+00    3  4.700001E+00  4.641787E-14  9.999772E-26  3.131767E-02  4.915396E-09  8.003255E+03  1.000000E-15  8.686046E-04  1.000093E-15  1.697431E-15  2.901303E-15  1.950691E-15  1.000000E-15  4.641787E-14  9.999772E-26  2.967131E-05  3.594068E-09  8.003225E+03  1.000000E-15  8.686046E-04  1.000093E-15  1.697431E-15  2.901303E-15  1.950691E-15  1.000000E-15  1.000000E+00  1.309288E-03  2.960775E-05  7.199828E-01  5.000000E-01  4.330242E-11 -7.495174E-06  0.000000E+00    1 
 6.250000E-01  6.250000E-01  1.250000E-01  1.918847E+05  2.001270E+05  7.716664E-01  2.283336E-01  9.999772E+02  2.474337E+00  3.096297E-05  9.999690E-01  9.946570E-01  5.342993E-03  8.000000E+00  6.037993E-01  6.059796E+00    3  4.700001E+00  4.641787E-14  9.999772E-26  3.131767E-02  4.915396E-09  8.003255E+03  1.000000E-15  8.686046E-04  1.000093E-15  1.697431E-15  2.901303E-15  1.950691E-15  1.000000E-15  4.641787E-14  9.999772E-26  2.967131E-05  3.594068E-09  8.003225E+03  1.000000E-15  8.686046E-04  1.000093E-15  1.697431E-15  2.901303E-15  1.950691E-15  1.000000E-15  1.000000E+00  1.309288E-03  2.960775E-05  7.199828E-01  5.000000E-01  4.330242E-11 -7.495174E-06  0.000000E+00    1 
 8.750000E-01  6.250000E-01  1.250000E-01  1.918847E+05  2.001270E+05  7.716664E-01  2.283336E-01  9.999772E+02  2.474337E+00  3.096297E-05  9.999690E-01  9.946570E-01  5.342993E-03  8.000000E+00  6.037993E-01  6.059796E+00    3  4.700001E+00  4.641787E-14  9.999772E-26  3.131767E-02  4.915396E-09  8.003255E+03  1.000000E-15  8.686046E-04  1.000093E-15  1.697431E-15  2.901303E-15  1.950691E-15  1.000000E-15  4.641787E-14  9.999772E-26  2.967131E-05  3.594068E-09  8.003225E+03  1.000000E-15  8.686046E-04  1.000093E-15  1.697431E-15  2.901303E-15  1.950691E-15  1.000000E-15  1.000000E+00  1.309288E-03  2.960775E-05  7.199828E-01  5.000000E-01  4.330242E-11 -7.495174E-06  0.000000E+00    1 
 1.250000E-01  8.750000E-01  1.250000E-01  1.918847E+05  2.001270E+05  7.716664E-01  2.283336E-01  9.999772E+02  2.474337E+00  3.096297E-05  9.999690E-01  9.946570E-01  5.342993E-03  8.000000E+00  6.037993E-01  6.059796E+00    3  4.700001E+00  4.641787E-14  9.999772E-26  3.131767E-02  4.915396E-09  8.003255E+03  1.000000E-15  8.686046E-04  1.000093E-15  1.697431E-15  2.901303E-15  1.950691E-15  1.000000E-15  4.641787E-14  9.999772E-26  2.967131E-05  3.594068E-09  8.003225E+03  1.000000E-15  8.686046E-04  1.000093E-15  1.697431E-15  2.901303E-15  1.950691E-15  1.000000E-15  1.000000E+00  1.309288E-03  2.960775E-05  7.199828E-01  5.000000E-01  4.330242E-11 -7.495174E-06  0.000000E+00    1 
 3.750000E-01  8.750000E-01  1.250000E-01  1.918847E+05  2.001270E+05  7.716664E-01  2.283336E-01  9.999772E+02  2.474337E+00  3.096297E-05  9.999690E-01  9.946570E-01  5.342993E-03  8.000000E+00  6.037993E-01  6.059796E+00    3  4.700001E+00  4.641787E-14  9.999772E-26  3.131767E-02  4.915396E-09  8.003255E+03  1.000000E-15  8.686046E-04  1.000093E-15  1.697431E-15  2.901303E-15  1.950691E-15  1.000000E-15  4.641787E-14  9.999772E-26  2.967131E-05  3.594068E-09  8.003225E+03  1.000000E-15  8.686046E-04  1.000093E-15  1.697431E-15  2.901303E-15  1.950691E-15  1.000000E-15  1.000000E+00  1.309288E-03  2.960775E-05  7.199828E-01  5.000000E-01  4.330242E-11 -7.495174E-06  0.000000E+00    1 
 6.250000E-01  8.750000E-01  1.250000E-01  1.918847E+05  2.001270E+05  7.716664E-01  2.283336E-01  9.999772E+02  2.474337E+00  3.096297E-05  9.999690E-01  9.946570E-01  5.342993E-03  8.000000E+00  6.037993E-01  6.059796E+00    3  4.700001E+00  4.641787E-14  9.999772E-26  3.131767E-02  4.915396E-09  8.003255E+03  1.000000E-15  8.686046E-04  1.000093E-15  1.697431E-15  2.901303E-15  1.950691E-15  1.000000E-15  4.641787E-14  9.999772E-26  2.967131E-05  3.594068E-09  8.003225E+03  1.000000E-15  8.686046E-04  1.000093E-15  1.697431E-15  2.901303E-15  1.950691E-15  1.000000E-15  1.000000E+00  1.309288E-03  2.960775E-05  7.199828E-01  5.000000E-01  4.330242E-11 -7.495174E-06  0.000000E+00    1 
 8.750000E-01  8.750000E-01  1.250000E-01  1.918847E+05  2.001270E+05  7.716664E-01  2.283336E-01  9.999772E+02  2.474337E+00  3.096297E-05  9.999690E-01  9.946570E-01  5.342993E-03  8.000000E+00  6.037993E-01  6.059796E+00    3  4.700001E+00  4.641787E-14  9.999772E-26  3.131767E-02  4.915396E-09  8.003255E+03  1.000000E-15  8.686046E-04  1.000093E-15  1.697431E-15  2.901303E-15  1.950691E-15  1.000000E-15  4.641787E-14  9.999772E-26  2.967131E-05  3.594068E-09  8.003225E+03  1.000000E-15  8.686046E-04  1.000093E-15  1.697431E-15  2.901303E-15  1.950691E-15  1.000000E-15  1.000000E+00  1.309288E-03  2.960775E-05  7.199828E-01  5.000000E-01  4.330242E-11 -7.495174E-06  0.000000E+00    1 
 1.250000E-01  1.250000E-01  3.750000E-01  1.914613E+05  2.001071E+05  7.564672E-01  2.435328E-01  9.999772E+02  2.474091E+00  3.095989E-05  9.999690E-01  9.946565E-01  5.343522E-03  8.000000E+00  6.037994E-01  6.059816E+00    3  4.699459E+00  3.918140E-14  9.999772E-26  3.131767E-02  4.933665E-09  8.003255E+03  1.000000E-15  8.686462E-04  1.000078E-15  1.586309E-15  2.598366E-15  1.799216E-15  1.000000E-15  3.918140E-14  9.999772E-26  2.970521E-05  3.607549E-09  8.003225E+03  1.000000E-15  8.686462E-04  1.000078E-15  1.586309E-15  2.598366E-15  1.799216E-15  1.000000E-15  1.000000E+00  1.312421E-03  2.960937E-05  7.199828E-01  5.000000E-01  1.206249E-10 -7.501417E-06  0.000000E+00    1 
 3.750000E-01  1.250000E-01  3.750000E-01  1.914613E+05  2.001071E+05  7.564672E-01  2.435328E-01  9.999772E+02  2.474091E+00  3.095989E-05  9.999690E-01  9.946565E-01  5.343522E-03  8.000000E+00  6.037994E-01  6.059816E+00    3  4.699459E+00  3.918140E-14  9.999772E-26  3.131767E-02  4.933665E-09  8.003255E+03  1.000000E-15  8.686462E-04  1.000078E-15  1.586309E-15  2.598366E-15  1.799216E-15  1.000000E-15  3.918140E-14  9.999772E-26  2.970521E-05  3.607549E-09  8.003225E+03  1.000000E-15  8.686462E-04  1.000078E-15  1.586309E-15  2.598366E-15  1.799216E-15  1.000000E-15  1.000000E+00  1.312421E-03  2.960937E-05  7.199828E-01  5.000000E-01  1.206249E-10 -7.501417E-06  0.000000E+00    1 
 6.250000E-01  1.250000E-01  3.750000E-01  1.914613E+05  2.001071E+05  7.564672E-01  2.435328E-01  9.999772E+02  2.474091E+00  3.095989E-05  9.999690E-01  9.946565E-01  5.343522E-03  8.000000E+00  6.037994E-01  6.059816E+00    3  4.699459E+00  3.918140E-14  9.999772E-26  3.131767E-02  4.933665E-09  8.003255E+03  1.000000E-15  8.686462E-04  1.000078E-15  1.586309E-15  2.598366E-15  1.799216E-15  1.000000E-15  3.918140E-14  9.999772E-26  2.970521E-05  3.607549E-09  8.003225E+03  1.000000E-15  8.686462E-04  1.000078E-15  1.586309E-15  2.598366E-15  1.799216E-15  1.000000E-15  1.000000E+00  1.312421E-03  2.960937E-05  7.199828E-01  5.000000E-01  1.206249E-10 -7.501417E-06  0.000000E+00    1 
 8.750000E-01  1.250000E-01  3.750000E-01  1.914613E+05  2.001071E+05  7.564672E-01  2.435328E-01  9.999772E+02  2.474091E+00  3.095989E-05  9.999690E-01  9.946565E-01  5.343522E-03  8.000000E+00  6.037994E-01  6.059816E+00    3  4.699459E+00  3.918140E-14  9.999772E-26  3.131767E-02  4.933665E-09  8.003255E+03  1.000000E-15  8.686462E-04  1.000078E-15  1.586309E-15  2.598366E-15  1.799216E-15  1.000000E-15  3.918140E-14  9.999772E-26  2.970521E-05  3.607549E-09  8.003225E+03  1.000000E-15  8.686462E-04  1.000078E-15  1.586309E-15  2.598366E-15  1.799216E-15  1.000000E-15  1.000000E+00  1.312421E-03  2.960937E-05  7.199828E-01  5.000000E-01  1.206249E-10 -7.501417E-06  0.000000E+00    1 
 1.250000E-01  3.750000E-01  3.750000E-01  1.914613E+05  2.001071E+05  7.564672E-01  2.435328E-01  9.999772E+02  2.474091E+00  3.095989E-05  9.999690E-01  9.946565E-01  5.343522E-03  8.000000E+00  6.037994E-01  6.059816E+00    3  4.699459E+00  3.918140E-14  9.999772E-26  3.131767E-02  4.933665E-09  8.003255E+03  1.000000E-15  8.686462E-04  1.000078E-15  1.586309E-15  2.598366E-15  1.799216E-15  1.000000E-15  3.918140E-14  9.999772E-26  2.970521E-05  3.607549E-09  8.003225E+03  1.000000E-15  8.686462E-04  1.000078E-15  1.586309E-15  2.598366E-15  1.799216E-15  1.000000E-15  1.000000E+00  1.312421E-03  2.960937E-05  7.199828E-01  5.000000E-01  1.206249E-10 -7.501417E-06  0.000000E+00    1 
 3.750000E-01  3.750000E-01  3.750000E-01  1.914613E+05  2.001071E+05  7.564672E-01  2.435328E-01  9.999772E+02  2.474091E+00  3.095989E-05  9.999690E-01  9.946565E-01  5.343522E-03  8.000000E+00  6.037994E-01  6.059816E+00    3  4.699459E+00  3.918140E-14  9.999772E-26  3.131767E-02  4.933665E-09  8.003255E+03  1.000000E-15  8.686462E-04  1.000078E-15  1.586309E-15  2.598366E-15  1.799216E-15  1.000000E-15  3.918140E-14  9.999772E-26  2.970521E-05  3.607549E-09  8.003225E+03  1.000000E-15  8.686462E-04  1.000078E-15  1.586309E-15  2.598366E-15  1.799216E-15  1.000000E-15  1.000000E+00  1.312421E-03  2.960937E-05  7.199828E-01  5.000000E-01  1.206249E-10 -7.501417E-06  0.000000E+00    1 
 6.250000E-01  3.750000E-01  3.750000E-01  1.914613E+05  2.001071E+05  7.564672E-01  2.435328E-01  9.999772E+02  2.474091E+00  3.095989E-05  9.999690E-01  9.946565E-01  5.343522E-03  8.000000E+00  6.037994E-01  6.059816E+00    3  4.699459E+00  3.918140E-14  9.999772E-26  3.131767E-02  4.933665E-09  8.003255E+03  1.000000E-15  8.686462E-04  1.000078E-15  1.586309E-15  2.598366E-15  1.799216E-15  1.000000E-15  3.918140E-14  9.999772E-26  2.970521E-05  3.607549E-09  8.003225E+03  1.000000E-15  8.686462E-04  1.000078E-15  1.586309E-15  2.598366E-15  1.799216E-15  1.000000E-15  1.000000E+00  1.312421E-03  2.960937E-05  7.199828E-01  5.000000E-01  1.206249E-10 -7.501417E-06  0.000000E+00    1 
 8.750000E-01  3.750000E-01  3.750000E-01  1.914613E+05  2.001071E+05  7.564672E-01  2.435328E-01  9.999772E+02  2.474091E+00  3.095989E-05  9.999690E-01  9.946565E-01  5.343522E-03  8.000000E+00  6.037994E-01  6.059816E+00    3  4.699459E+00  3.918140E-14  9.999772E-26  3.131767E-02  4.933665E-09  8.003255E+03  1.000000E-15  8.686462E-04  1.000078E-15  1.586309E-15  2.598366E-15  1.799216E-15  1.000000E-15  3.918140E-14  9.999772E-26  2.970521E-05  3.607549E-09  8.003225E+03  1.000000E-15  8.686462E-04  1.000078E-15  1.586309E-15  2.598366E-15  1.799216E-15  1.000000E-15  1.000000E+00  1.312421E-03  2.960937E-05  7.199828E-01  5.000000E-01  1.206249E-10 -7.501417E-06  0.000000E+00    1 
 1.250000E-01  6.250000E-01  3.750000E-01  1.914613E+05  2.001071E+05  7.564672E-01  2.435328E-01  9.999772E+02  2.474091E+00  3.095989E-05  9.999690E-01  9.946565E-01  5.343522E-03  8.000000E+00  6.037994E-01  6.059816E+00    3  4.699459E+00  3.918140E-14  9.999772E-26  3.131767E-02  4.933665E-09  8.003255E+03  1.000000E-15  8.686462E-04  1.000078E-15  1.586309E-15  2.598366E-15  1.799216E-15  1.000000E-15  3.918140E-14  9.999772E-26  2.970521E-05  3.607549E-09  8.003225E+03  1.000000E-15  8.686462E-04  1.000078E-15  1.586309E-15  2.598366E-15  1.799216E-15  1.000000E-15  1.000000E+00  1.312421E-03  2.960937E-05  7.199828E-01  5.000000E-01  1.206249E-10 -7.501417E-06  0.000000E+00    1 
 3.750000E-01  6.250000E-01  3.750000E-01  1.914613E+05  2.001071E+05  7.564672E-01  2.435328E-01  9.999772E+02  2.474091E+00  3.095989E-05  9.999690E-01  9.946565E-01  5.343522E-03  8.000000E+00  6.037994E-01  6.059816E+00    3  4.699459E+00  3.918140E-14  9.999772E-26  3.131767E-02  4.933665E-09  8.003255E+03  1.000000E-15  8.686462E-04  1.000078E-15  1.586309E-15  2.598366E-15  1.799216E-15  1.000000E-15  3.918140E-14  9.999772E-26  2.970521E-05  3.607549E-09  8.003225E+03  1.000000E-15  8.686462E-04  1.000078E-15  1.586309E-15  2.598366E-15  1.799216E-15  1.000000E-15  1.000000E+00  1.312421E-03  2.960937E-05  7.199828E-01  5.000000E-01  1.206249E-10 -7.501417E-06  0.000000E+00    1 
 6.250000E-01  6.250000E-01  3.750000E-01  1.914613E+05  2.001071E+05  7.564672E-01  2.435328E-01  9.999772E+02  2.474091E+00  3.095989E-05  9.999690E-01  9.946565E-01  5.343522E-03  8.000000E+00  6.037994E-01  6.059816E+00    3  4.699459E+00  3.918140E-14  9.999772E-26  3.131767E-02  4.933665E-09  8.003255E+03  1.000000E-15  8.686462E-04  1.000078E-15  1.586309E-15  2.598366E-15  1.799216E-15  1.000000E-15  3.918140E-14  9.999772E-26  2.970521E-05  3.607549E-09  8.003225E+03  1.000000E-15  8.686462E-04  1.000078E-15  1.586309E-15  2.598366E-15  1.799216E-15  1.000000E-15  1.000000E+00  1.312421E-03  2.960937E-05  7.199828E-01  5.000000E-01  1.206249E-10 -7.501417E-06  0.000000E+00    1 
 8.750000E-01  6.250000E-01  3.750000E-01  1.914613E+05  2.001071E+05  7.564672E-01  2.435328E-01  9.999772E+02  2.474091E+00  3.095989E-05  9.999690E-01  9.946565E-01  5.343522E-03  8.000000E+00  6.037994E-01  6.059816E+00    3  4.699459E+00  3.918140E-14  9.999772E-26  3.131767E-02  4.933665E-09  8.003255E+03  1.000000E-15  8.686462E-04  1.000078E-15  1.586309E-15  2.598366E-15  1.799216E-15  1.000000E-15  3.918140E-14  9.999772E-26  2.970521E-05  3.607549E-09  8.003225E+03  1.000000E-15  8.686462E-04  1.000078E-15  1.586309E-15  2.598366E-15  1.799216E-15  1.000000E-15  1.000000E+00  1.312421E-03  2.960937E-05  7.199828E-01  5.000000E-01  1.206249E-10 -7.501417E-06  0.000000E+00    1 
 1.250000E-01  8.750000E-01  3.750000E-01  1.914613E+05  2.001071E+05  7.564672E-01  2.435328E-01  9.999772E+02  2.474091E+00  3.095989E-05  9.999690E-01  9.946565E-01  5.343522E-03  8.000000E+00  6.037994E-01  6.059816E+00    3  4.699459E+00  3.918140E-14  9.999772E-26  3.131767E-02  4.933665E-09  8.003255E+03  1.000000E-15  8.686462E-04  1.000078E-15  1.586309E-15  2.598366E-15  1.799216E-15  1.000000E-15  3.918140E-14  9.999772E-26  2.970521E-05  3.607549E-09  8.003225E+03  1.000000E-15  8.686462E-04  1.000078E-15  1.586309E-15  2.598366E-15  1.799216E-15  1.000000E-15  1.000000E+00  1.312421E-03  2.960937E-05  7.199828E-01  5.000000E-01  1.206249E-10 -7.501417E-06  0.000000E+00    1 
 3.750000E-01  8.750000E-01  3.750000E-01  1.914613E+05  2.001071E+05  7.564672E-01  2.435328E-01  9.999772E+02  2.474091E+00  3.095989E-05  9.999690E-01  9.946565E-01  5.343522E-03  8.000000E+00  6.037994E-01  6.059816E+00    3  4.699459E+00  3.918140E-14  9.999772E-26  3.131767E-02  4.933665E-09  8.003255E+03  1.000000E-15  8.686462E-04  1.000078E-15  1.586309E-15  2.598366E-15  1.799216E-15  1.000000E-15  3.918140E-14  9.999772E-26  2.970521E-05  3.607549E-09  8.003225E+03  1.000000E-15  8.686462E-04  1.000078E-15  1.586309E-15  2.598366E-15  1.799216E-15  1.000000E-15  1.000000E+00  1.312421E-03  2.960937E-05  7.199828E-01  5.000000E-01  1.206249E-10 -7.501417E-06  0.000000E+00    1 
 6.250000E-01  8.750000E-01  3.750000E-01  1.914613E+05  2.001071E+05  7.564672E-01  2.435328E-01  9.999772E+02  2.474091E+00  3.095989E-05  9.999690E-01  9.946565E-01  5.343522E-03  8.000000E+00  6.037994E-01  6.059816E+00    3  4.699459E+00  3.918140E-14  9.999772E-26  3.131767E-02  4.933665E-09  8.003255E+03  1.000000E-15  8.686462E-04  1.000078E-15  1.586309E-15  2.598366E-15  1.799216E-15  1.000000E-15  3.918140E-14  9.999772E-26  2.970521E-05  3.607549E-09  8.003225E+03  1.000000E-15  8.686462E-04  1.000078E-15  1.586309E-15  2.598366E-15  1.799216E-15  1.000000E-15  1.000000E+00  1.312421E-03  2.960937E-05  7.199828E-01  5.000000E-01  1.206249E-10 -7.501417E-06  0.000000E+00    1 
 8.750000E-01  8.750000E-01  3.750000E-01  1.914613E+05  2.001071E+05  7.564672E-01  2.435328E-01  9.999772E+02  2.474091E+00  3.095989E-05  9.999690E-01  9.946565E-01  5.343522E-03  8.000000E+00  6.037994E-01  6.059816E+00    3  4.699459E+00  3.918140E-14  9.999772E-26  3.131767E-02  4.933665E-09  8.003255E+03  1.000000E-15  8.686462E-04  1.000078E-15  1.586309E-15  2.598366E-15  1.799216E-15  1.000000E-15  3.918140E-14  9.999772E-26  2.970521E-05  3.607549E-09  8.003225E+03  1.000000E-15  8.686462E-04  1.000078E-15  1.586309E-15  2.598366E-15  1.799216E-15  1.000000E-15  1.000000E+00  1.312421E-03  2.960937E-05  7.199828E-01  5.000000E-01  1.206249E-10 -7.501417E-06  0.000000E+00    1 
 1.250000E-01  1.250000E-01  6.250000E-01  1.917501E+05  2.000825E+05  7.682578E-01  2.317422E-01  9.999772E+02  2.473785E+00  3.095605E-05  9.999690E-01  9.946558E-01  5.344181E-03  8.000000E+00  6.037994E-01  6.059840E+00    3  4.698377E+00  2.594972E-14  9.999772E-26  3.131767E-02  5.002953E-09  8.003255E+03  1.000000E-15  8.687286E-04  1.000051E-15  1.383127E-15  2.044456E-15  1.522249E-15  1.000000E-15  2.594972E-14  9.999772E-26  2.977306E-05  3.658462E-09  8.003225E+03  1.000000E-15  8.687286E-04  1.000051E-15  1.383127E-15  2.044456E-15  1.522249E-15  1.000000E-15  1.000000E+00  1.318702E-03  3.151480E-05  7.199828E-01  5.000000E-01  6.557487E-07 -7.513844E-06  0.000000E+00    1 
 3.750000E-01  1.250000E-01  6.250000E-01  1.917501E+05  2.000825E+05  7.682578E-01  2.317422E-01  9.999772E+02  2.473785E+00  3.095605E-05  9.999690E-01  9.946558E-01  5.344181E-03  8.000000E+00  6.037994E-01  6.059840E+00    3  4.698377E+00  2.594972E-14  9.999772E-26  3.131767E-02  5.002953E-09  8.003255E+03  1.000000E-15  8.687286E-04  1.000051E-15  1.383127E-15  2.044456E-15  1.522249E-15  1.000000E-15  2.594972E-14  9.999772E-26  2.977306E-05  3.658462E-09  8.003225E+03  1.000000E-15  8.687286E-04  1.000051E-15  1.383127E-15  2.044456E-15  1.522249E-15  1.000000E-15  1.000000E+00  1.318702E-03  3.151480E-05  7.199828E-01  5.000000E-01  6.557487E-07 -7.513844E-06  0.000000E+00    1 
 6.250000E-01  1.250000E-01  6.250000E-01  1.917501E+05  2.000825E+05  7.682578E-01  2.317422E-01  9.999772E+02  2.473785E+00  3.095605E-05  9.999690E-01  9.946558E-01  5.344181E-03  8.000000E+00  6.037994E-01  6.059840E+00    3  4.698377E+00  2.594972E-14  9.999772E-26  3.131767E-02  5.002953E-09  8.003255E+03  1.000000E-15  8.687286E-04  1.000051E-15  1.383127E-15  2.044456E-15  1.522249E-15  1.000000E-15  2.594972E-14  9.999772E-26  2.977306E-05  3.658462E-09  8.003225E+03  1.000000E-15  8.687286E-04  1.000051E-15  1.383127E-15  2.044456E-15  1.522249E-15  1.000000E-15  1.000000E+00  1.318702E-03  3.151480E-05  7.199828E-01  5.000000E-01  6.557487E-07 -7.513844E-06  0.000000E+00    1 
 8.750000E-01  1.250000E-01  6.250000E-01  1.917501E+05  2.000825E+05  7.682578E-01  2.317422E-01  9.999772E+02  2.473785E+00  3.095605E-05  9.999690E-01  9.946558E-01  5.344181E-03  8.000000E+00  6.037994E-01  6.059840E+00    3  4.698377E+00  2.594972E-14  9.999772E-26  3.131767E-02  5.002953E-09  8.003255E+03  1.000000E-15  8.687286E-04  1.000051E-15  1.383127E-15  2.044456E-15  1.522249E-15  1.000000E-15  2.594972E-14  9.999772E-26  2.977306E-05  3.658462E-09  8.003225E+03  1.000000E-15  8.687286E-04  1.000051E-15  1.383127E-15  2.044456E-15  1.522249E-15  1.000000E-15  1.000000E+00  1.318702E-03  3.151480E-05  7.199828E-01  5.000000E-01  6.557487E-07 -7.513844E-06  0.000000E+00    1 
 1.250000E-01  3.750000E-01  6.250000E-01  1.917501E+05  2.000825E+05  7.682578E-01  2.317422E-01  9.999772E+02  2.473785E+00  3.095605E-05  9.999690E-01  9.946558E-01  5.344181E-03  8.000000E+00  6.037994E-01  6.059840E+00    3  4.698377E+00  2.594972E-14  9.999772E-26  3.131767E-02  5.002953E-09  8.003255E+03  1.000000E-15  8.687286E-04  1.000051E-15  1.383127E-15  2.044456E-15  1.522249E-15  1.000000E-15  2.594972E-14  9.999772E-26  2.977306E-05  3.658462E-09  8.003225E+03  1.000000E-15  8.687286E-04  1.000051E-15  1.383127E-15  2.044456E-15  1.522249E-15  1.000000E-15  1.000000E+00  1.318702E-03  3.151480E-05  7.199828E-01  5.000000E-01  6.557487E-07 -7.513844E-06  0.000000E+00    1 
 3.750000E-01  3.750000E-01  6.250000E-01  1.917501E+05  2.000825E+05  7.682578E-01  2.317422E-01  9.999772E+02  2.473785E+00  3.095605E-05  9.999690E-01  9.946558E-01  5.344181E-03  8.000000E+00  6.037994E-01  6.059840E+00    3  4.698377E+00  2.594972E-14  9.999772E-26  3.131767E-02  5.002953E-09  8.003255E+03  1.000000E-15  8.687286E-04  1.000051E-15  1.383127E-15  2.044456E-15  1.522249E-15  1.000000E-15  2.594972E-14  9.999772E-26  2.977306E-05  3.658462E-09  8.003225E+03  1.000000E-15  8.687286E-04  1.000051E-15  1.383127E-15  2.044456E-15  1.522249E-15  1.000000E-15  1.000000E+00  1.318702E-03  3.151480E-05  7.199828E-01  5.000000E-01  6.557487E-07 -7.513844E-06  0.000000E+00    1 
 6.250000E-01  3.750000E-01  6.250000E-01  1.917501E+05  2.000825E+05  7.682578E-01  2.317422E-01  9.999772E+02  2.473785E+00  3.095605E-05  9.999690E-01  9.946558E-01  5.344181E-03  8.000000E+00  6.037994E-01  6.059840E+00    3  4.698377E+00  2.594972E-14  9.999772E-26  3.131767E-02  5.002953E-09  8.003255E+03  1.000000E-15  8.687286E-04  1.000051E-15  1.383127E-15  2.044456E-15  1.522249E-15  1.000000E-15  2.594972E-14  9.999772E-26  2.977306E-05  3.658462E-09  8.003225E+03  1.000000E-15  8.687286E-04  1.000051E-15  1.383127E-15  2.044456E-15  1.522249E-15  1.000000E-15  1.000000E+00  1.318702E-03  3.151480E-05  7.199828E-01  5.000000E-01  6.557487E-07 -7.513844E-06  0.000000E+00    1 
 8.750000E-01  3.750000E-01  6.250000E-01  1.917501E+05  2.000825E+05  7.682578E-01  2.317422E-01  9.999772E+02  2.473785E+00  3.095605E-05  9.999690E-01  9.946558E-01  5.344181E-03  8.000000E+00  6.037994E-01  6.059840E+00    3  4.698377E+00  2.594972E-14  9.999772E-26  3.131767E-02  5.002953E-09  8.003255E+03  1.000000E-15  8.687286E-04  1.000051E-15  1.383127E-15  2.044456E-15  1.522249E-15  1.000000E-15  2.594972E-14  9.999772E-26  2.977306E-05  3.658462E-09  8.003225E+03  1.000000E-15  8.687286E-04  1.000051E-15  1.383127E-15  2.044456E-15  1.522249E-15  1.000000E-15  1.000000E+00  1.318702E-03  3.151480E-05  7.199828E-01  5.000000E-01  6.557487E-07 -7.513844E-06  0.000000E+00    1 
 1.250000E-01  6.250000E-01  6.250000E-01  1.917501E+05  2.000825E+05  7.682578E-01  2.317422E-01  9.999772E+02  2.473785E+00  3.095605E-05  9.999690E-01  9.946558E-01  5.344181E-03  8.000000E+00  6.037994E-01  6.059840E+00    3  4.698377E+00  2.594972E-14  9.999772E-26  3.131767E-02  5.002953E-09  8.003255E+03  1.000000E-15  8.687286E-04  1.000051E-15  1.383127E-15  2.044456E-15  1.522249E-15  1.000000E-15  2.594972E-14  9.999772E-26  2.977306E-05  3.658462E-09  8.003225E+03  1.000000E-15  8.687286E-04  1.000051E-15  1.383127E-15  2.044456E-15  1.522249E-15  1.000000E-15  1.000000E+00  1.318702E-03  3.151480E-05  7.199828E-01  5.000000E-01  6.557487E-07 -7.513844E-06  0.000000E+00    1 